/autofs/nccs-svm1_home1/hjjvd
CODAR
NWX_TA
Nwchem-6.6.revision27746-src.2015-10-20.tar.gz
bin
lib
man
summitdev
titan
tksvn
PE 0: MPICH Warning: DMAPP optimizations are not supported if libdmapp is not linked into your application. Please see the mpi man page. Disabling all requested DMAPP optimizations.
 argument  1 = nwc_gbe_pvdz_rhf.nw
 


============================== echo of input deck ==============================
echo
start nwc_gbe_dat
title "E and Grad of 1UBQ"
#memory stack 800 mb heap 100 mb global 2000 mb noverify
geometry noautoz
   load format pdb "dgrtl.pdb"
end
basis 631g spherical
  * library 6-31g
end
basis 631gp spherical
  * library 6-31g*
end
basis pvdz spherical
  * library cc-pVDZ
end
basis pvtz spherical
  * library cc-pVTZ
end
basis pvqz spherical
  * library cc-pVQZ
end

set "ao basis" pvdz
charge +1
scf
  thresh 1.0e-6
  tol2e 1.0e-10
  singlet
  rhf
  maxiter 300
end
set scf:pstat t
set tce:pstat t

tce
  2eorb
  2emet 15
  tilesize 35
  # attilesize 45
  attilesize 35
  thresh 1.0e-3
  maxiter 100
end

set tce:nts T

### tce restart ########
#
# when generating 2-electron integrals for the first time:
# uncomment "set tce:writeint T"
# in following runs please
# comment  "set tce:writeint T"
# and
# uncomment "set tce:readint T"
# it will save time :-)
#
set tce:tceiop 2048
set tce:writeint T
#set tce:readint T
#######################

task tce energy
================================================================================


                                         
                                         
 
 
              Northwest Computational Chemistry Package (NWChem) 6.6
              ------------------------------------------------------
 
 
                    Environmental Molecular Sciences Laboratory
                       Pacific Northwest National Laboratory
                                Richland, WA 99352
 
                              Copyright (c) 1994-2015
                       Pacific Northwest National Laboratory
                            Battelle Memorial Institute
 
             NWChem is an open-source computational chemistry package
                        distributed under the terms of the
                      Educational Community License (ECL) 2.0
             A copy of the license is included with this distribution
                              in the LICENSE.TXT file
 
                                  ACKNOWLEDGMENT
                                  --------------

            This software and its documentation were developed at the
            EMSL at Pacific Northwest National Laboratory, a multiprogram
            national laboratory, operated for the U.S. Department of Energy
            by Battelle under Contract Number DE-AC05-76RL01830. Support
            for this work was provided by the Department of Energy Office
            of Biological and Environmental Research, Office of Basic
            Energy Sciences, and the Office of Advanced Scientific Computing.


           Job information
           ---------------

    hostname        = nid06666
    program         = /lustre/atlas/scratch/hjjvd/csc249/.3632584/nwchem
    date            = Fri Sep 29 05:06:51 2017

    compiled        = Fri_Sep_01_15:52:17_2017
    source          = /ccs/home/hjjvd/titan/nwchem-dev
    nwchem branch   = Development
    nwchem revision = 29350
    ga revision     = N/A
    input           = nwc_gbe_pvdz_rhf.nw
    prefix          = nwc_gbe_dat.
    data base       = /lustre/atlas/scratch/hjjvd/csc249/.3632584/nwc_gbe_dat.db
    status          = startup
    nproc           =    30720
    time left       =     -1s



           Memory information
           ------------------

    heap     =    6553594 doubles =     50.0 Mbytes
    stack    =   80740351 doubles =    616.0 Mbytes
    global   =  161480704 doubles =   1232.0 Mbytes (distinct from heap & stack)
    total    =  248774649 doubles =   1898.0 Mbytes
    verify   = yes
    hardfail = no 


           Directory information
           ---------------------
 
  0 permanent = /lustre/atlas/scratch/hjjvd/csc249/.3632584
  0 scratch   = /lustre/atlas/scratch/hjjvd/csc249/.3632584
 
 
 
 
                                NWChem Input Module
                                -------------------
 
 
                                E and Grad of 1UBQ
                                ------------------

 Scaling coordinates for geometry "geometry" by  1.889725989
 (inverse scale =  0.529177249)

 C1  symmetry detected
 
 
                             Geometry "geometry" -> ""
                             -------------------------
 
 Output coordinates in angstroms (scale by  1.889725989 to convert to a.u.)
 
  No.       Tag          Charge          X              Y              Z
 ---- ---------------- ---------- -------------- -------------- --------------
    1 N                    7.0000     2.32906152     4.50497561    -1.74104900
    2 C                    6.0000     2.62746889     4.39747324    -0.31708893
    3 C                    6.0000     1.58316452     3.88229451     0.65826088
    4 O                    8.0000     1.96536223     3.17203504     1.63153031
    5 C                    6.0000     3.17093495     5.77310393     0.17051833
    6 C                    6.0000     4.61984434     5.98216592    -0.22109840
    7 O                    8.0000     5.17470143     7.06570304     0.06565919
    8 O                    8.0000     5.24172042     5.10923915    -0.84227389
    9 N                    7.0000     0.34751118     4.30287770     0.51273907
   10 C                    6.0000    -0.76651384     3.94357402     1.40931708
   11 C                    6.0000    -1.42962453     2.63454319     1.13913479
   12 O                    8.0000    -2.25461301     2.15397265     1.94921872
   13 N                    7.0000    -1.11857252     1.96615596     0.03444200
   14 C                    6.0000    -1.67514052     0.63072531    -0.26339357
   15 C                    6.0000    -0.80180935    -0.40750593     0.42477687
   16 O                    8.0000     0.35946097    -0.12200259     0.78880720
   17 C                    6.0000    -1.69557624     0.34016866    -1.76580603
   18 C                    6.0000    -2.45516489     1.39076317    -2.60100976
   19 C                    6.0000    -3.96055504     1.17262312    -2.27426608
   20 N                    7.0000    -4.36917204     2.37842516    -1.58917952
   21 C                    6.0000    -4.96902685     2.65972446    -0.47410020
   22 N                    7.0000    -5.40925757     1.78228945     0.40777548
   23 N                    7.0000    -5.10570620     3.97134461    -0.14396636
   24 N                    7.0000    -1.29538921    -1.61649224     0.52247552
   25 C                    6.0000    -0.56570687    -2.76611350     1.10378494
   26 C                    6.0000    -0.11142581    -3.65076119    -0.08128729
   27 O                    8.0000    -0.58915638    -3.48311333    -1.19864386
   28 C                    6.0000    -1.47918793    -3.59968258     2.05247294
   29 O                    8.0000    -2.57683571    -4.02927961     1.13594267
   30 C                    6.0000    -2.07456032    -2.87604938     3.24367474
   31 N                    7.0000     0.81388643    -4.54470352     0.20027685
   32 C                    6.0000     1.31248684    -5.50593605    -0.79835355
   33 C                    6.0000     0.14051370    -6.37085985    -1.25458680
   34 O                    8.0000     0.03870186    -6.62648525    -2.42370100
   35 C                    6.0000     2.45042237    -6.32411125    -0.15201459
   36 C                    6.0000     3.69261129    -5.59040550     0.35231822
   37 C                    6.0000     4.70766680    -6.58422804     0.94040330
   38 C                    6.0000     4.42413898    -4.91980436    -0.80833304
   39 H                    1.0000     2.58480150     5.43884488    -2.22572028
   40 H                    1.0000     3.37933543     3.54155260    -0.28833884
   41 H                    1.0000     2.54086211     6.60242560    -0.29281178
   42 H                    1.0000     3.10728899     5.79370085     1.30869185
   43 H                    1.0000     4.63044578     7.82303659     0.57710194
   44 H                    1.0000     0.13215710     4.95838079    -0.32175738
   45 H                    1.0000    -0.36130414     3.91589997     2.47409933
   46 H                    1.0000    -1.56787139     4.73520305     1.23444982
   47 H                    1.0000    -0.43275172     2.41605737    -0.67278395
   48 H                    1.0000    -2.75019383     0.59403206     0.11267823
   49 H                    1.0000    -0.61844170     0.29870313    -2.13699168
   50 H                    1.0000    -2.24657428    -0.64792209    -1.90153682
   51 H                    1.0000    -2.13236094     2.44339667    -2.30635858
   52 H                    1.0000    -2.24324701     1.27875011    -3.71576259
   53 H                    1.0000    -4.56233961     1.03107077    -3.23168567
   54 H                    1.0000    -4.13226686     0.23968514    -1.64266829
   55 H                    1.0000    -4.10975280     3.27006952    -2.14607627
   56 H                    1.0000    -5.28087180     0.72266712     0.22726890
   57 H                    1.0000    -5.89890886     2.12206391     1.31143854
   58 H                    1.0000    -4.71938051     4.73840703    -0.80284397
   59 H                    1.0000    -2.30014202    -1.78622743     0.15528244
   60 H                    1.0000     0.31698638    -2.39451640     1.72256942
   61 H                    1.0000    -0.86489037    -4.42176299     2.54748436
   62 H                    1.0000    -3.54691947    -3.89542208     1.63656496
   63 H                    1.0000    -3.19425144    -3.08211919     3.29344446
   64 H                    1.0000    -1.57788383    -3.24634598     4.20012593
   65 H                    1.0000    -1.89944599    -1.75508254     3.13355521
   66 H                    1.0000     1.22300061    -4.57417275     1.20254884
   67 H                    1.0000     1.73959766    -4.99148459    -1.72178413
   68 H                    1.0000     2.00208582    -6.87456009     0.73962515
   69 H                    1.0000     2.84186606    -6.97212753    -1.00439170
   70 H                    1.0000     3.33405558    -4.83613543     1.12860648
   71 H                    1.0000     4.58444703    -7.59838715     0.43407813
   72 H                    1.0000     5.76562815    -6.19704927     0.76348413
   73 H                    1.0000     4.52554617    -6.69481701     2.06102641
   74 H                    1.0000     4.08863545    -5.38948867    -1.79186445
   75 H                    1.0000     4.18170513    -3.80563401    -0.81677499
   76 H                    1.0000     5.54843388    -5.06355819    -0.68258005
   77 H                    1.0000     1.32610230     4.36202290    -1.85742047
   78 H                    1.0000    -5.55568790     4.22360296     0.69405940
   79 H                    1.0000    -0.54852316    -6.72763283    -0.57488815
 
      Atomic Mass 
      ----------- 
 
      N                 14.003070
      C                 12.000000
      O                 15.994910
      H                  1.007825
 

 Effective nuclear repulsion energy (a.u.)    4475.2626654164

            Nuclear Dipole moment (a.u.) 
            ----------------------------
        X                 Y               Z
 ---------------- ---------------- ----------------
     0.0000000000    -0.0000000000     0.0000000000
 
 
            XYZ format geometry
            -------------------
    79
 geometry
 N                     2.32906152     4.50497561    -1.74104900
 C                     2.62746889     4.39747324    -0.31708893
 C                     1.58316452     3.88229451     0.65826088
 O                     1.96536223     3.17203504     1.63153031
 C                     3.17093495     5.77310393     0.17051833
 C                     4.61984434     5.98216592    -0.22109840
 O                     5.17470143     7.06570304     0.06565919
 O                     5.24172042     5.10923915    -0.84227389
 N                     0.34751118     4.30287770     0.51273907
 C                    -0.76651384     3.94357402     1.40931708
 C                    -1.42962453     2.63454319     1.13913479
 O                    -2.25461301     2.15397265     1.94921872
 N                    -1.11857252     1.96615596     0.03444200
 C                    -1.67514052     0.63072531    -0.26339357
 C                    -0.80180935    -0.40750593     0.42477687
 O                     0.35946097    -0.12200259     0.78880720
 C                    -1.69557624     0.34016866    -1.76580603
 C                    -2.45516489     1.39076317    -2.60100976
 C                    -3.96055504     1.17262312    -2.27426608
 N                    -4.36917204     2.37842516    -1.58917952
 C                    -4.96902685     2.65972446    -0.47410020
 N                    -5.40925757     1.78228945     0.40777548
 N                    -5.10570620     3.97134461    -0.14396636
 N                    -1.29538921    -1.61649224     0.52247552
 C                    -0.56570687    -2.76611350     1.10378494
 C                    -0.11142581    -3.65076119    -0.08128729
 O                    -0.58915638    -3.48311333    -1.19864386
 C                    -1.47918793    -3.59968258     2.05247294
 O                    -2.57683571    -4.02927961     1.13594267
 C                    -2.07456032    -2.87604938     3.24367474
 N                     0.81388643    -4.54470352     0.20027685
 C                     1.31248684    -5.50593605    -0.79835355
 C                     0.14051370    -6.37085985    -1.25458680
 O                     0.03870186    -6.62648525    -2.42370100
 C                     2.45042237    -6.32411125    -0.15201459
 C                     3.69261129    -5.59040550     0.35231822
 C                     4.70766680    -6.58422804     0.94040330
 C                     4.42413898    -4.91980436    -0.80833304
 H                     2.58480150     5.43884488    -2.22572028
 H                     3.37933543     3.54155260    -0.28833884
 H                     2.54086211     6.60242560    -0.29281178
 H                     3.10728899     5.79370085     1.30869185
 H                     4.63044578     7.82303659     0.57710194
 H                     0.13215710     4.95838079    -0.32175738
 H                    -0.36130414     3.91589997     2.47409933
 H                    -1.56787139     4.73520305     1.23444982
 H                    -0.43275172     2.41605737    -0.67278395
 H                    -2.75019383     0.59403206     0.11267823
 H                    -0.61844170     0.29870313    -2.13699168
 H                    -2.24657428    -0.64792209    -1.90153682
 H                    -2.13236094     2.44339667    -2.30635858
 H                    -2.24324701     1.27875011    -3.71576259
 H                    -4.56233961     1.03107077    -3.23168567
 H                    -4.13226686     0.23968514    -1.64266829
 H                    -4.10975280     3.27006952    -2.14607627
 H                    -5.28087180     0.72266712     0.22726890
 H                    -5.89890886     2.12206391     1.31143854
 H                    -4.71938051     4.73840703    -0.80284397
 H                    -2.30014202    -1.78622743     0.15528244
 H                     0.31698638    -2.39451640     1.72256942
 H                    -0.86489037    -4.42176299     2.54748436
 H                    -3.54691947    -3.89542208     1.63656496
 H                    -3.19425144    -3.08211919     3.29344446
 H                    -1.57788383    -3.24634598     4.20012593
 H                    -1.89944599    -1.75508254     3.13355521
 H                     1.22300061    -4.57417275     1.20254884
 H                     1.73959766    -4.99148459    -1.72178413
 H                     2.00208582    -6.87456009     0.73962515
 H                     2.84186606    -6.97212753    -1.00439170
 H                     3.33405558    -4.83613543     1.12860648
 H                     4.58444703    -7.59838715     0.43407813
 H                     5.76562815    -6.19704927     0.76348413
 H                     4.52554617    -6.69481701     2.06102641
 H                     4.08863545    -5.38948867    -1.79186445
 H                     4.18170513    -3.80563401    -0.81677499
 H                     5.54843388    -5.06355819    -0.68258005
 H                     1.32610230     4.36202290    -1.85742047
 H                    -5.55568790     4.22360296     0.69405940
 H                    -0.54852316    -6.72763283    -0.57488815
 
 ==============================================================================
                                internuclear distances
 ------------------------------------------------------------------------------
       center one      |      center two      | atomic units |  angstroms
 ------------------------------------------------------------------------------
    2 C                |   1 N                |     2.75684  |     1.45886
    3 C                |   2 C                |     2.87045  |     1.51898
    4 O                |   3 C                |     2.38869  |     1.26404
    5 C                |   2 C                |     2.94305  |     1.55739
    6 C                |   5 C                |     2.86367  |     1.51539
    7 O                |   6 C                |     2.36340  |     1.25066
    8 O                |   6 C                |     2.34097  |     1.23879
    9 N                |   3 C                |     2.48188  |     1.31336
   10 C                |   9 N                |     2.78631  |     1.47445
   11 C                |  10 C                |     2.81961  |     1.49207
   12 O                |  11 C                |     2.36615  |     1.25211
   13 N                |  11 C                |     2.50974  |     1.32810
   14 C                |  13 N                |     2.79133  |     1.47711
   15 C                |  14 C                |     2.87475  |     1.52125
   16 O                |  15 C                |     2.36222  |     1.25003
   17 C                |  14 C                |     2.89201  |     1.53039
   18 C                |  17 C                |     2.91428  |     1.54217
   19 C                |  18 C                |     2.94006  |     1.55581
   20 N                |  19 C                |     2.73212  |     1.44578
   21 C                |  20 N                |     2.45108  |     1.29706
   22 N                |  21 C                |     2.49372  |     1.31962
   23 N                |  21 C                |     2.56893  |     1.35942
   24 N                |  15 C                |     2.47461  |     1.30951
   25 C                |  24 N                |     2.79781  |     1.48054
   26 C                |  25 C                |     2.92350  |     1.54705
   27 O                |  26 C                |     2.31815  |     1.22671
   28 C                |  25 C                |     2.94536  |     1.55862
   29 O                |  28 C                |     2.82159  |     1.49312
   30 C                |  28 C                |     2.86409  |     1.51561
   31 N                |  26 C                |     2.48886  |     1.31705
   32 C                |  31 N                |     2.78363  |     1.47304
   33 C                |  32 C                |     2.88439  |     1.52636
   34 O                |  33 C                |     2.26967  |     1.20106
   35 C                |  32 C                |     2.91659  |     1.54339
   36 C                |  35 C                |     2.88807  |     1.52830
   37 C                |  36 C                |     2.90543  |     1.53749
   38 C                |  36 C                |     2.88575  |     1.52707
   39 H                |   1 N                |     2.04616  |     1.08278
   40 H                |   2 C                |     2.15357  |     1.13962
   41 H                |   5 C                |     2.15416  |     1.13993
   42 H                |   5 C                |     2.15455  |     1.14014
   43 H                |   7 O                |     2.01000  |     1.06365
   44 H                |   9 N                |     2.04619  |     1.08280
   45 H                |  10 C                |     2.15356  |     1.13961
   46 H                |  10 C                |     2.15415  |     1.13992
   47 H                |  13 N                |     2.04661  |     1.08302
   48 H                |  14 C                |     2.15339  |     1.13952
   49 H                |  17 C                |     2.15438  |     1.14005
   50 H                |  17 C                |     2.15325  |     1.13945
   51 H                |  18 C                |     2.15384  |     1.13976
   52 H                |  18 C                |     2.15473  |     1.14023
   53 H                |  19 C                |     2.15365  |     1.13966
   54 H                |  19 C                |     2.15360  |     1.13964
   55 H                |  20 N                |     2.04620  |     1.08280
   56 H                |  22 N                |     2.04568  |     1.08253
   57 H                |  22 N                |     2.04563  |     1.08250
   58 H                |  23 N                |     2.04558  |     1.08247
   59 H                |  24 N                |     2.04682  |     1.08313
   60 H                |  25 C                |     2.15472  |     1.14023
   61 H                |  28 C                |     2.15314  |     1.13939
   63 H                |  30 C                |     2.15350  |     1.13958
   64 H                |  30 C                |     2.15346  |     1.13956
   65 H                |  30 C                |     2.15409  |     1.13989
   66 H                |  31 N                |     2.04649  |     1.08296
   67 H                |  32 C                |     2.15446  |     1.14009
   68 H                |  35 C                |     2.15381  |     1.13975
   69 H                |  35 C                |     2.15437  |     1.14004
   70 H                |  36 C                |     2.15471  |     1.14022
   71 H                |  37 C                |     2.15467  |     1.14020
   72 H                |  37 C                |     2.15503  |     1.14039
   73 H                |  37 C                |     2.15561  |     1.14070
   74 H                |  38 C                |     2.15503  |     1.14039
   75 H                |  38 C                |     2.15480  |     1.14027
   76 H                |  38 C                |     2.15505  |     1.14040
   77 H                |   1 N                |     1.92706  |     1.01976
   78 H                |  23 N                |     1.85963  |     0.98408
   79 H                |  33 C                |     1.94930  |     1.03153
 ------------------------------------------------------------------------------
                         number of included internuclear distances:         77
 ==============================================================================



 ==============================================================================
                                 internuclear angles
 ------------------------------------------------------------------------------
        center 1       |       center 2       |       center 3       |  degrees
 ------------------------------------------------------------------------------
    2 C                |   1 N                |  39 H                |   116.88
    2 C                |   1 N                |  77 H                |   107.59
   39 H                |   1 N                |  77 H                |   107.58
    1 N                |   2 C                |   3 C                |   120.74
    1 N                |   2 C                |   5 C                |   108.17
    1 N                |   2 C                |  40 H                |   102.41
    3 C                |   2 C                |   5 C                |   109.78
    3 C                |   2 C                |  40 H                |   100.52
    5 C                |   2 C                |  40 H                |   115.17
    2 C                |   3 C                |   4 O                |   118.50
    2 C                |   3 C                |   9 N                |   117.84
    4 O                |   3 C                |   9 N                |   123.35
    2 C                |   5 C                |   6 C                |   112.00
    2 C                |   5 C                |  41 H                |   108.81
    2 C                |   5 C                |  42 H                |   108.00
    6 C                |   5 C                |  41 H                |   108.85
    6 C                |   5 C                |  42 H                |   107.99
   41 H                |   5 C                |  42 H                |   111.21
    5 C                |   6 C                |   7 O                |   118.98
    5 C                |   6 C                |   8 O                |   120.82
    7 O                |   6 C                |   8 O                |   120.18
    6 C                |   7 O                |  43 H                |   120.01
    3 C                |   9 N                |  10 C                |   124.43
    3 C                |   9 N                |  44 H                |   117.80
   10 C                |   9 N                |  44 H                |   117.77
    9 N                |  10 C                |  11 C                |   116.07
    9 N                |  10 C                |  45 H                |   107.78
    9 N                |  10 C                |  46 H                |   105.58
   11 C                |  10 C                |  45 H                |   107.81
   11 C                |  10 C                |  46 H                |   105.61
   45 H                |  10 C                |  46 H                |   114.21
   10 C                |  11 C                |  12 O                |   120.82
   10 C                |  11 C                |  13 N                |   119.21
   12 O                |  11 C                |  13 N                |   119.95
   11 C                |  13 N                |  14 C                |   122.31
   11 C                |  13 N                |  47 H                |   118.84
   14 C                |  13 N                |  47 H                |   118.85
   13 N                |  14 C                |  15 C                |   108.03
   13 N                |  14 C                |  17 C                |   112.00
   13 N                |  14 C                |  48 H                |   108.54
   15 C                |  14 C                |  17 C                |   108.80
   15 C                |  14 C                |  48 H                |   111.74
   17 C                |  14 C                |  48 H                |   107.78
   14 C                |  15 C                |  16 O                |   120.61
   14 C                |  15 C                |  24 N                |   116.58
   16 O                |  15 C                |  24 N                |   122.64
   14 C                |  17 C                |  18 C                |   114.14
   14 C                |  17 C                |  49 H                |   108.30
   14 C                |  17 C                |  50 H                |   106.74
   18 C                |  17 C                |  49 H                |   108.29
   18 C                |  17 C                |  50 H                |   106.74
   49 H                |  17 C                |  50 H                |   112.74
   17 C                |  18 C                |  19 C                |   105.51
   17 C                |  18 C                |  51 H                |   110.47
   17 C                |  18 C                |  52 H                |   111.78
   19 C                |  18 C                |  51 H                |   110.44
   19 C                |  18 C                |  52 H                |   111.80
   51 H                |  18 C                |  52 H                |   106.91
   18 C                |  19 C                |  20 N                |   104.84
   18 C                |  19 C                |  53 H                |   110.60
   18 C                |  19 C                |  54 H                |   112.15
   20 N                |  19 C                |  53 H                |   110.64
   20 N                |  19 C                |  54 H                |   112.18
   53 H                |  19 C                |  54 H                |   106.52
   19 C                |  20 N                |  21 C                |   135.97
   19 C                |  20 N                |  55 H                |   112.05
   21 C                |  20 N                |  55 H                |   111.99
   20 N                |  21 C                |  22 N                |   125.77
   20 N                |  21 C                |  23 N                |   117.68
   22 N                |  21 C                |  23 N                |   116.47
   21 C                |  22 N                |  56 H                |   119.99
   21 C                |  22 N                |  57 H                |   120.00
   56 H                |  22 N                |  57 H                |   120.01
   21 C                |  23 N                |  58 H                |   120.00
   21 C                |  23 N                |  78 H                |   120.01
   58 H                |  23 N                |  78 H                |   119.99
   15 C                |  24 N                |  25 C                |   124.08
   15 C                |  24 N                |  59 H                |   117.97
   25 C                |  24 N                |  59 H                |   117.94
   24 N                |  25 C                |  26 C                |   106.74
   24 N                |  25 C                |  28 C                |   111.43
   24 N                |  25 C                |  60 H                |   109.97
   26 C                |  25 C                |  28 C                |   109.42
   26 C                |  25 C                |  60 H                |   112.01
   28 C                |  25 C                |  60 H                |   107.32
   25 C                |  26 C                |  27 O                |   120.35
   25 C                |  26 C                |  31 N                |   115.51
   27 O                |  26 C                |  31 N                |   124.13
   25 C                |  28 C                |  29 O                |   102.19
   25 C                |  28 C                |  30 C                |   116.95
   25 C                |  28 C                |  61 H                |   109.53
   29 O                |  28 C                |  30 C                |   109.33
   29 O                |  28 C                |  61 H                |   117.09
   30 C                |  28 C                |  61 H                |   102.40
   28 C                |  30 C                |  63 H                |   109.51
   28 C                |  30 C                |  64 H                |   109.47
   28 C                |  30 C                |  65 H                |   109.47
   63 H                |  30 C                |  64 H                |   109.44
   63 H                |  30 C                |  65 H                |   109.45
   64 H                |  30 C                |  65 H                |   109.49
   26 C                |  31 N                |  32 C                |   122.40
   26 C                |  31 N                |  66 H                |   118.80
   32 C                |  31 N                |  66 H                |   118.80
   31 N                |  32 C                |  33 C                |   108.21
   31 N                |  32 C                |  35 C                |   108.15
   31 N                |  32 C                |  67 H                |   112.42
   33 C                |  32 C                |  35 C                |   113.01
   33 C                |  32 C                |  67 H                |   107.53
   35 C                |  32 C                |  67 H                |   107.59
   32 C                |  33 C                |  34 O                |   118.47
   32 C                |  33 C                |  79 H                |   120.79
   34 O                |  33 C                |  79 H                |   120.74
   32 C                |  35 C                |  36 C                |   118.88
   32 C                |  35 C                |  68 H                |   107.07
   32 C                |  35 C                |  69 H                |   103.97
   36 C                |  35 C                |  68 H                |   107.06
   36 C                |  35 C                |  69 H                |   103.92
   68 H                |  35 C                |  69 H                |   116.45
   35 C                |  36 C                |  37 C                |   110.64
   35 C                |  36 C                |  38 C                |   110.45
   35 C                |  36 C                |  70 H                |   106.66
   37 C                |  36 C                |  38 C                |   104.97
   37 C                |  36 C                |  70 H                |   112.01
   38 C                |  36 C                |  70 H                |   112.19
   36 C                |  37 C                |  71 H                |   109.50
   36 C                |  37 C                |  72 H                |   109.49
   36 C                |  37 C                |  73 H                |   109.45
   71 H                |  37 C                |  72 H                |   109.47
   71 H                |  37 C                |  73 H                |   109.44
   72 H                |  37 C                |  73 H                |   109.48
   36 C                |  38 C                |  74 H                |   109.49
   36 C                |  38 C                |  75 H                |   109.44
   36 C                |  38 C                |  76 H                |   109.46
   74 H                |  38 C                |  75 H                |   109.48
   74 H                |  38 C                |  76 H                |   109.46
   75 H                |  38 C                |  76 H                |   109.49
 ------------------------------------------------------------------------------
                            number of included internuclear angles:        136
 ==============================================================================



  library name resolved from: environment
  library file name is: <
 /sw/xk6/nwchem/6.6/sles11.3_pgi15.7.0/src/basis/libraries/>
  


 Summary of "631g" -> "" (spherical)
 ------------------------------------------------------------------------------
       Tag                 Description            Shells   Functions and Types
 ---------------- ------------------------------  ------  ---------------------
 *                           6-31g                    on all atoms 


  library name resolved from: environment
  library file name is: <
 /sw/xk6/nwchem/6.6/sles11.3_pgi15.7.0/src/basis/libraries/>
  


 Summary of "631gp" -> "" (spherical)
 ------------------------------------------------------------------------------
       Tag                 Description            Shells   Functions and Types
 ---------------- ------------------------------  ------  ---------------------
 *                           6-31g*                   on all atoms 


  library name resolved from: environment
  library file name is: <
 /sw/xk6/nwchem/6.6/sles11.3_pgi15.7.0/src/basis/libraries/>
  


 Summary of "pvdz" -> "" (spherical)
 ------------------------------------------------------------------------------
       Tag                 Description            Shells   Functions and Types
 ---------------- ------------------------------  ------  ---------------------
 *                          cc-pVDZ                   on all atoms 


  library name resolved from: environment
  library file name is: <
 /sw/xk6/nwchem/6.6/sles11.3_pgi15.7.0/src/basis/libraries/>
  


 Summary of "pvtz" -> "" (spherical)
 ------------------------------------------------------------------------------
       Tag                 Description            Shells   Functions and Types
 ---------------- ------------------------------  ------  ---------------------
 *                          cc-pVTZ                   on all atoms 


  library name resolved from: environment
  library file name is: <
 /sw/xk6/nwchem/6.6/sles11.3_pgi15.7.0/src/basis/libraries/>
  


 Summary of "pvqz" -> "" (spherical)
 ------------------------------------------------------------------------------
       Tag                 Description            Shells   Functions and Types
 ---------------- ------------------------------  ------  ---------------------
 *                          cc-pVQZ                   on all atoms 


                      Basis "ao basis" -> "pvdz" (spherical)
                      -----
  N (Nitrogen)
  ------------
            Exponent  Coefficients 
       -------------- ---------------------------------------------------------
  1 S  9.04600000E+03  0.000700
  1 S  1.35700000E+03  0.005389
  1 S  3.09300000E+02  0.027406
  1 S  8.77300000E+01  0.103207
  1 S  2.85600000E+01  0.278723
  1 S  1.02100000E+01  0.448540
  1 S  3.83800000E+00  0.278238
  1 S  7.46600000E-01  0.015440
 
  2 S  9.04600000E+03 -0.000153
  2 S  1.35700000E+03 -0.001208
  2 S  3.09300000E+02 -0.005992
  2 S  8.77300000E+01 -0.024544
  2 S  2.85600000E+01 -0.067459
  2 S  1.02100000E+01 -0.158078
  2 S  3.83800000E+00 -0.121831
  2 S  7.46600000E-01  0.549003
 
  3 S  2.24800000E-01  1.000000
 
  4 P  1.35500000E+01  0.039919
  4 P  2.91700000E+00  0.217169
  4 P  7.97300000E-01  0.510319
 
  5 P  2.18500000E-01  1.000000
 
  6 D  8.17000000E-01  1.000000
 
  C (Carbon)
  ----------
            Exponent  Coefficients 
       -------------- ---------------------------------------------------------
  1 S  6.66500000E+03  0.000692
  1 S  1.00000000E+03  0.005329
  1 S  2.28000000E+02  0.027077
  1 S  6.47100000E+01  0.101718
  1 S  2.10600000E+01  0.274740
  1 S  7.49500000E+00  0.448564
  1 S  2.79700000E+00  0.285074
  1 S  5.21500000E-01  0.015204
 
  2 S  6.66500000E+03 -0.000146
  2 S  1.00000000E+03 -0.001154
  2 S  2.28000000E+02 -0.005725
  2 S  6.47100000E+01 -0.023312
  2 S  2.10600000E+01 -0.063955
  2 S  7.49500000E+00 -0.149981
  2 S  2.79700000E+00 -0.127262
  2 S  5.21500000E-01  0.544529
 
  3 S  1.59600000E-01  1.000000
 
  4 P  9.43900000E+00  0.038109
  4 P  2.00200000E+00  0.209480
  4 P  5.45600000E-01  0.508557
 
  5 P  1.51700000E-01  1.000000
 
  6 D  5.50000000E-01  1.000000
 
  O (Oxygen)
  ----------
            Exponent  Coefficients 
       -------------- ---------------------------------------------------------
  1 S  1.17200000E+04  0.000710
  1 S  1.75900000E+03  0.005470
  1 S  4.00800000E+02  0.027837
  1 S  1.13700000E+02  0.104800
  1 S  3.70300000E+01  0.283062
  1 S  1.32700000E+01  0.448719
  1 S  5.02500000E+00  0.270952
  1 S  1.01300000E+00  0.015458
 
  2 S  1.17200000E+04 -0.000160
  2 S  1.75900000E+03 -0.001263
  2 S  4.00800000E+02 -0.006267
  2 S  1.13700000E+02 -0.025716
  2 S  3.70300000E+01 -0.070924
  2 S  1.32700000E+01 -0.165411
  2 S  5.02500000E+00 -0.116955
  2 S  1.01300000E+00  0.557368
 
  3 S  3.02300000E-01  1.000000
 
  4 P  1.77000000E+01  0.043018
  4 P  3.85400000E+00  0.228913
  4 P  1.04600000E+00  0.508728
 
  5 P  2.75300000E-01  1.000000
 
  6 D  1.18500000E+00  1.000000
 
  H (Hydrogen)
  ------------
            Exponent  Coefficients 
       -------------- ---------------------------------------------------------
  1 S  1.30100000E+01  0.019685
  1 S  1.96200000E+00  0.137977
  1 S  4.44600000E-01  0.478148
 
  2 S  1.22000000E-01  1.000000
 
  3 P  7.27000000E-01  1.000000
 


 Summary of "ao basis" -> "pvdz" (spherical)
 ------------------------------------------------------------------------------
       Tag                 Description            Shells   Functions and Types
 ---------------- ------------------------------  ------  ---------------------
 N                          cc-pVDZ                  6       14   3s2p1d
 C                          cc-pVDZ                  6       14   3s2p1d
 O                          cc-pVDZ                  6       14   3s2p1d
 H                          cc-pVDZ                  3        5   2s1p


                                 NWChem SCF Module
                                 -----------------
 
 
                                E and Grad of 1UBQ
 
 

  ao basis        = "pvdz"
  functions       =   737
  atoms           =    79
  closed shells   =   146
  open shells     =     0
  charge          =   1.00
  wavefunction    = RHF 
  input vectors   = atomic
  output vectors  = /lustre/atlas/scratch/hjjvd/csc249/.3632584/nwc_gbe_dat.movecs
  use symmetry    = F
  symmetry adapt  = F


 Summary of "ao basis" -> "pvdz" (spherical)
 ------------------------------------------------------------------------------
       Tag                 Description            Shells   Functions and Types
 ---------------- ------------------------------  ------  ---------------------
 N                          cc-pVDZ                  6       14   3s2p1d
 C                          cc-pVDZ                  6       14   3s2p1d
 O                          cc-pVDZ                  6       14   3s2p1d
 H                          cc-pVDZ                  3        5   2s1p



 Forming initial guess at      18.2s

 
      Superposition of Atomic Density Guess
      -------------------------------------
 
 Sum of atomic energies:       -1881.63520740

 Renormalizing density from     293.00 to    292
 
      Non-variational initial energy
      ------------------------------

 Total energy =   -1900.069273
 1-e energy   =  -11436.696478
 2-e energy   =    5061.364540
 HOMO         =      -0.383107
 LUMO         =      -0.139769
 

 Starting SCF solution at      28.2s



 ----------------------------------------------
         Quadratically convergent ROHF

 Convergence threshold     :          1.000E-06
 Maximum no. of iterations :          300
 Final Fock-matrix accuracy:          1.000E-10
 ----------------------------------------------


              iter       energy          gnorm     gmax       time
             ----- ------------------- --------- --------- --------
                 1    -1890.3051405662  3.82D+00  2.82D-01     26.6
                 2    -1891.1134559522  1.27D+00  5.18D-02     42.6
                 3    -1891.2639751172  1.06D-01  6.02D-03     66.6
                 4    -1891.2656609659  7.26D-03  8.01D-04     96.9
                 5    -1891.2656702840  4.86D-05  3.82D-06    153.4
                 6    -1891.2656702843  5.24D-08  1.20D-08    228.6


       Final RHF  results 
       ------------------ 

         Total SCF energy =  -1891.265670284289
      One-electron energy = -11472.194922227718
      Two-electron energy =   5105.666586527024
 Nuclear repulsion energy =   4475.262665416405

        Time for solution =    210.2s


             Final eigenvalues
             -----------------

              1      
    1  -20.6940
    2  -20.6564
    3  -20.6119
    4  -20.6045
    5  -20.5946
    6  -20.5876
    7  -20.5845
    8  -20.5830
    9  -15.7890
   10  -15.7884
   11  -15.7767
   12  -15.7096
   13  -15.7029
   14  -15.6817
   15  -15.6681
   16  -15.6391
   17  -11.5827
   18  -11.4557
   19  -11.4482
   20  -11.4475
   21  -11.4368
   22  -11.4331
   23  -11.4204
   24  -11.4032
   25  -11.4017
   26  -11.3930
   27  -11.3852
   28  -11.3764
   29  -11.3757
   30  -11.3691
   31  -11.3525
   32  -11.3465
   33  -11.3460
   34  -11.3319
   35  -11.3097
   36  -11.2984
   37  -11.2889
   38  -11.2847
   39   -1.5506
   40   -1.5304
   41   -1.4719
   42   -1.4546
   43   -1.4458
   44   -1.4445
   45   -1.4395
   46   -1.4072
   47   -1.3970
   48   -1.3943
   49   -1.3568
   50   -1.3396
   51   -1.3231
   52   -1.3107
   53   -1.3074
   54   -1.2671
   55   -1.2156
   56   -1.1617
   57   -1.1511
   58   -1.1267
   59   -1.1103
   60   -1.0943
   61   -1.0825
   62   -1.0581
   63   -1.0287
   64   -0.9973
   65   -0.9832
   66   -0.9638
   67   -0.9544
   68   -0.9515
   69   -0.9278
   70   -0.9174
   71   -0.9126
   72   -0.9051
   73   -0.8945
   74   -0.8820
   75   -0.8726
   76   -0.8579
   77   -0.8480
   78   -0.8455
   79   -0.8285
   80   -0.8201
   81   -0.8139
   82   -0.8123
   83   -0.8037
   84   -0.7902
   85   -0.7855
   86   -0.7757
   87   -0.7731
   88   -0.7609
   89   -0.7492
   90   -0.7413
   91   -0.7346
   92   -0.7312
   93   -0.7238
   94   -0.7217
   95   -0.7142
   96   -0.7103
   97   -0.7078
   98   -0.7016
   99   -0.7004
  100   -0.6990
  101   -0.6917
  102   -0.6852
  103   -0.6794
  104   -0.6739
  105   -0.6713
  106   -0.6611
  107   -0.6573
  108   -0.6491
  109   -0.6481
  110   -0.6460
  111   -0.6398
  112   -0.6361
  113   -0.6299
  114   -0.6232
  115   -0.6192
  116   -0.6168
  117   -0.6069
  118   -0.6053
  119   -0.6023
  120   -0.6003
  121   -0.5969
  122   -0.5876
  123   -0.5843
  124   -0.5825
  125   -0.5772
  126   -0.5701
  127   -0.5692
  128   -0.5676
  129   -0.5574
  130   -0.5364
  131   -0.5354
  132   -0.5280
  133   -0.5259
  134   -0.5146
  135   -0.5097
  136   -0.4984
  137   -0.4978
  138   -0.4969
  139   -0.4924
  140   -0.4922
  141   -0.4850
  142   -0.4829
  143   -0.4803
  144   -0.4661
  145   -0.4637
  146   -0.4479
  147   -0.0231
  148   -0.0017
  149    0.0306
  150    0.0358
  151    0.0370
  152    0.0465
  153    0.0689
  154    0.0721
  155    0.0743
  156    0.0756
 
                       ROHF Final Molecular Orbital Analysis
                       -------------------------------------
 
 Vector   41  Occ=2.000000D+00  E=-1.471869D+00
              MO Center= -1.6D+00,  2.1D+00,  1.3D+00, r^2= 2.4D+00
   Bfn.  Coefficient  Atom+Function         Bfn.  Coefficient  Atom+Function  
  ----- ------------  ---------------      ----- ------------  ---------------
   157      0.315124  12 O  s               156      0.311623  12 O  s         
   142      0.236434  11 C  s               170      0.158431  13 N  s         
 
 Vector   42  Occ=2.000000D+00  E=-1.454617D+00
              MO Center= -3.5D-01, -3.1D+00, -3.8D-01, r^2= 6.0D+00
   Bfn.  Coefficient  Atom+Function         Bfn.  Coefficient  Atom+Function  
  ----- ------------  ---------------      ----- ------------  ---------------
   366      0.268000  27 O  s               367      0.263510  27 O  s         
   352      0.200268  26 C  s         
 
 Vector   43  Occ=2.000000D+00  E=-1.445764D+00
              MO Center=  5.1D-01, -1.6D+00, -3.7D-01, r^2= 2.4D+01
   Bfn.  Coefficient  Atom+Function         Bfn.  Coefficient  Atom+Function  
  ----- ------------  ---------------      ----- ------------  ---------------
   464      0.262071  34 O  s               465      0.244271  34 O  s         
    45      0.192659   4 O  s                44      0.189324   4 O  s         
    30      0.153154   3 C  s               213     -0.150371  16 O  s         
 
 Vector   44  Occ=2.000000D+00  E=-1.444526D+00
              MO Center=  7.3D-01,  2.0D-01,  1.4D-01, r^2= 2.5D+01
   Bfn.  Coefficient  Atom+Function         Bfn.  Coefficient  Atom+Function  
  ----- ------------  ---------------      ----- ------------  ---------------
    45      0.242497   4 O  s                44      0.241242   4 O  s         
   464     -0.218939  34 O  s               465     -0.205169  34 O  s         
    30      0.192855   3 C  s         
 
 Vector   45  Occ=2.000000D+00  E=-1.439513D+00
              MO Center= -2.4D-01, -2.4D+00, -2.4D-01, r^2= 8.9D+00
   Bfn.  Coefficient  Atom+Function         Bfn.  Coefficient  Atom+Function  
  ----- ------------  ---------------      ----- ------------  ---------------
   212      0.234141  16 O  s               213      0.233818  16 O  s         
   366     -0.208773  27 O  s               367     -0.207137  27 O  s         
   198      0.170715  15 C  s               464      0.169805  34 O  s         
   465      0.162363  34 O  s         
 
 Vector   46  Occ=2.000000D+00  E=-1.407172D+00
              MO Center= -2.4D+00, -3.9D+00,  1.3D+00, r^2= 1.3D+00
   Bfn.  Coefficient  Atom+Function         Bfn.  Coefficient  Atom+Function  
  ----- ------------  ---------------      ----- ------------  ---------------
   395      0.440547  29 O  s               394      0.411426  29 O  s         
 
 Vector   47  Occ=2.000000D+00  E=-1.397006D+00
              MO Center= -4.7D+00,  2.4D+00, -8.5D-01, r^2= 2.4D+00
   Bfn.  Coefficient  Atom+Function         Bfn.  Coefficient  Atom+Function  
  ----- ------------  ---------------      ----- ------------  ---------------
   268      0.292410  20 N  s               269      0.278759  20 N  s         
   296     -0.210107  22 N  s               286     -0.185962  21 C  pz        
   297     -0.161687  22 N  s               310     -0.160967  23 N  s         
 
 Vector   48  Occ=2.000000D+00  E=-1.394295D+00
              MO Center=  5.0D+00,  5.6D+00, -5.6D-01, r^2= 1.1D+00
   Bfn.  Coefficient  Atom+Function         Bfn.  Coefficient  Atom+Function  
  ----- ------------  ---------------      ----- ------------  ---------------
   100      0.382213   8 O  s               101      0.373498   8 O  s         
    75     -0.193566   6 C  py               86     -0.182196   7 O  s         
    87     -0.180333   7 O  s         
 
 Vector   49  Occ=2.000000D+00  E=-1.356762D+00
              MO Center= -5.2D+00,  2.9D+00, -1.9D-03, r^2= 2.0D+00
   Bfn.  Coefficient  Atom+Function         Bfn.  Coefficient  Atom+Function  
  ----- ------------  ---------------      ----- ------------  ---------------
   310      0.305547  23 N  s               296     -0.276311  22 N  s         
   311      0.267876  23 N  s               297     -0.259141  22 N  s         
   285      0.214354  21 C  py        
 
 Vector   50  Occ=2.000000D+00  E=-1.339562D+00
              MO Center= -2.1D-01,  3.0D+00,  7.4D-01, r^2= 4.3D+00
   Bfn.  Coefficient  Atom+Function         Bfn.  Coefficient  Atom+Function  
  ----- ------------  ---------------      ----- ------------  ---------------
   114      0.221020   9 N  s               115      0.219390   9 N  s         
   170      0.210715  13 N  s                44     -0.196303   4 O  s         
   171      0.196691  13 N  s                45     -0.192696   4 O  s         
   156     -0.171008  12 O  s               157     -0.168877  12 O  s         
 
 Vector   51  Occ=2.000000D+00  E=-1.323051D+00
              MO Center= -3.3D-01,  2.8D+00,  4.8D-01, r^2= 4.5D+00
   Bfn.  Coefficient  Atom+Function         Bfn.  Coefficient  Atom+Function  
  ----- ------------  ---------------      ----- ------------  ---------------
   170      0.249656  13 N  s               171      0.248586  13 N  s         
   114     -0.218054   9 N  s               115     -0.217471   9 N  s         
    44      0.167573   4 O  s                45      0.166374   4 O  s         
 
 Vector   52  Occ=2.000000D+00  E=-1.310692D+00
              MO Center= -8.1D-01, -1.5D+00,  5.5D-01, r^2= 2.8D+00
   Bfn.  Coefficient  Atom+Function         Bfn.  Coefficient  Atom+Function  
  ----- ------------  ---------------      ----- ------------  ---------------
   324      0.321962  24 N  s               325      0.306723  24 N  s         
   212     -0.215361  16 O  s               213     -0.212575  16 O  s         
   200     -0.153023  15 C  px        
 
 Vector   53  Occ=2.000000D+00  E=-1.307406D+00
              MO Center=  4.5D-01, -4.2D+00, -8.4D-02, r^2= 2.4D+00
   Bfn.  Coefficient  Atom+Function         Bfn.  Coefficient  Atom+Function  
  ----- ------------  ---------------      ----- ------------  ---------------
   422      0.324618  31 N  s               423      0.309976  31 N  s         
   366     -0.203697  27 O  s               367     -0.199775  27 O  s         
 
 Vector   54  Occ=2.000000D+00  E=-1.267086D+00
              MO Center=  2.2D+00,  4.6D+00, -1.2D+00, r^2= 1.9D+00
   Bfn.  Coefficient  Atom+Function         Bfn.  Coefficient  Atom+Function  
  ----- ------------  ---------------      ----- ------------  ---------------
     2      0.340681   1 N  s                 3      0.269432   1 N  s         
    16      0.199969   2 C  s                17      0.152396   2 C  s         
   723      0.151465  77 H  s         
 
 Vector   55  Occ=2.000000D+00  E=-1.215635D+00
              MO Center= -2.7D+00,  1.3D+00, -1.6D+00, r^2= 4.3D+00
   Bfn.  Coefficient  Atom+Function         Bfn.  Coefficient  Atom+Function  
  ----- ------------  ---------------      ----- ------------  ---------------
   240      0.223685  18 C  s               226      0.190842  17 C  s         
   254      0.182548  19 C  s         
 
 Vector   56  Occ=2.000000D+00  E=-1.161691D+00
              MO Center=  2.1D+00, -4.8D+00,  5.8D-02, r^2= 1.1D+01
   Bfn.  Coefficient  Atom+Function         Bfn.  Coefficient  Atom+Function  
  ----- ------------  ---------------      ----- ------------  ---------------
   492      0.206041  36 C  s               478      0.193172  35 C  s         
   493      0.180173  36 C  s         
 
 Vector   57  Occ=2.000000D+00  E=-1.151076D+00
              MO Center= -1.1D+00, -2.8D-01, -2.5D-01, r^2= 1.9D+01
   Bfn.  Coefficient  Atom+Function         Bfn.  Coefficient  Atom+Function  
  ----- ------------  ---------------      ----- ------------  ---------------
   184      0.171310  14 C  s               254     -0.155392  19 C  s         
 
 Vector   58  Occ=2.000000D+00  E=-1.126710D+00
              MO Center= -1.0D+00, -1.8D+00,  1.2D+00, r^2= 1.5D+01
   Bfn.  Coefficient  Atom+Function         Bfn.  Coefficient  Atom+Function  
  ----- ------------  ---------------      ----- ------------  ---------------
   380      0.192298  28 C  s               408      0.167770  30 C  s         
   338      0.156421  25 C  s         
 
 Vector   59  Occ=2.000000D+00  E=-1.110257D+00
              MO Center=  1.2D+00,  4.1D+00, -1.3D-01, r^2= 1.2D+01
   Bfn.  Coefficient  Atom+Function         Bfn.  Coefficient  Atom+Function  
  ----- ------------  ---------------      ----- ------------  ---------------
    58      0.221573   5 C  s                 2     -0.164082   1 N  s         
    59      0.154920   5 C  s         
 
 Vector   60  Occ=2.000000D+00  E=-1.094304D+00
              MO Center=  5.6D-01,  4.1D+00,  2.1D-01, r^2= 1.2D+01
   Bfn.  Coefficient  Atom+Function         Bfn.  Coefficient  Atom+Function  
  ----- ------------  ---------------      ----- ------------  ---------------
   128      0.218102  10 C  s                58      0.215592   5 C  s         
 
 Vector   61  Occ=2.000000D+00  E=-1.082522D+00
              MO Center=  9.9D-01, -4.8D+00,  4.9D-01, r^2= 1.0D+01
   Bfn.  Coefficient  Atom+Function         Bfn.  Coefficient  Atom+Function  
  ----- ------------  ---------------      ----- ------------  ---------------
   436      0.209489  32 C  s               437      0.172010  32 C  s         
   408      0.164114  30 C  s         
 
 Vector   62  Occ=2.000000D+00  E=-1.058086D+00
              MO Center= -1.6D+00, -4.0D-01, -1.4D-01, r^2= 1.8D+01
   Bfn.  Coefficient  Atom+Function         Bfn.  Coefficient  Atom+Function  
  ----- ------------  ---------------      ----- ------------  ---------------
   240      0.149790  18 C  s         
 
 Vector   63  Occ=2.000000D+00  E=-1.028681D+00
              MO Center= -1.2D+00, -1.3D+00,  5.1D-01, r^2= 1.7D+01
   Bfn.  Coefficient  Atom+Function         Bfn.  Coefficient  Atom+Function  
  ----- ------------  ---------------      ----- ------------  ---------------
   338      0.178863  25 C  s               339      0.167138  25 C  s         
   408     -0.165050  30 C  s         
 
 Vector   64  Occ=2.000000D+00  E=-9.972733D-01
              MO Center= -4.4D+00,  2.0D+00, -6.7D-01, r^2= 6.2D+00
   Bfn.  Coefficient  Atom+Function         Bfn.  Coefficient  Atom+Function  
  ----- ------------  ---------------      ----- ------------  ---------------
   282      0.201546  21 C  s               613     -0.174296  55 H  s         
   299      0.173074  22 N  py              300     -0.166746  22 N  pz        
 
 Vector   65  Occ=2.000000D+00  E=-9.832294D-01
              MO Center=  2.0D+00,  4.4D+00, -5.5D-02, r^2= 8.4D+00
   Bfn.  Coefficient  Atom+Function         Bfn.  Coefficient  Atom+Function  
  ----- ------------  ---------------      ----- ------------  ---------------
    16      0.223576   2 C  s                17      0.156872   2 C  s         
 
 Vector   66  Occ=2.000000D+00  E=-9.638161D-01
              MO Center=  4.4D+00, -5.6D+00, -6.9D-02, r^2= 2.9D+00
   Bfn.  Coefficient  Atom+Function         Bfn.  Coefficient  Atom+Function  
  ----- ------------  ---------------      ----- ------------  ---------------
   520      0.288567  38 C  s               506     -0.241239  37 C  s         
   521      0.200941  38 C  s               507     -0.164048  37 C  s         
 
 Vector   67  Occ=2.000000D+00  E=-9.544426D-01
              MO Center=  8.3D-01, -4.1D+00, -3.7D-01, r^2= 2.5D+01
   Bfn.  Coefficient  Atom+Function         Bfn.  Coefficient  Atom+Function  
  ----- ------------  ---------------      ----- ------------  ---------------
   478      0.195420  35 C  s               479      0.157056  35 C  s         
   450     -0.154123  33 C  s               506     -0.151992  37 C  s         
 
 Vector   68  Occ=2.000000D+00  E=-9.515397D-01
              MO Center= -2.4D+00,  3.0D-01, -5.9D-01, r^2= 2.6D+01
   Bfn.  Coefficient  Atom+Function         Bfn.  Coefficient  Atom+Function  
  ----- ------------  ---------------      ----- ------------  ---------------
   313      0.187951  23 N  py              285     -0.161574  21 C  py        
 
 Vector   69  Occ=2.000000D+00  E=-9.278426D-01
              MO Center= -3.1D+00,  1.7D+00, -9.1D-01, r^2= 1.0D+01
   Bfn.  Coefficient  Atom+Function         Bfn.  Coefficient  Atom+Function  
  ----- ------------  ---------------      ----- ------------  ---------------
   299      0.171085  22 N  py              226      0.170149  17 C  s         
   272     -0.170019  20 N  pz        
 
 Vector   70  Occ=2.000000D+00  E=-9.174267D-01
              MO Center= -1.1D+00,  3.3D+00, -7.4D-02, r^2= 2.5D+01
   Bfn.  Coefficient  Atom+Function         Bfn.  Coefficient  Atom+Function  
  ----- ------------  ---------------      ----- ------------  ---------------
    89      0.202850   7 O  py              314      0.172767  23 N  pz        
   728      0.169911  78 H  s               285     -0.158615  21 C  py        
 
 Vector   71  Occ=2.000000D+00  E=-9.126286D-01
              MO Center= -5.6D-01,  3.8D+00, -2.4D-01, r^2= 3.0D+01
   Bfn.  Coefficient  Atom+Function         Bfn.  Coefficient  Atom+Function  
  ----- ------------  ---------------      ----- ------------  ---------------
    89      0.248729   7 O  py              728     -0.172424  78 H  s         
   285      0.171296  21 C  py              314     -0.172072  23 N  pz        
   553      0.167292  43 H  s         
 
 Vector   72  Occ=2.000000D+00  E=-9.050923D-01
              MO Center=  4.5D-01,  1.8D+00,  7.2D-01, r^2= 2.9D+01
   Bfn.  Coefficient  Atom+Function         Bfn.  Coefficient  Atom+Function  
  ----- ------------  ---------------      ----- ------------  ---------------
    89      0.219926   7 O  py              553      0.150994  43 H  s         
 
 Vector   73  Occ=2.000000D+00  E=-8.945479D-01
              MO Center= -3.1D-01, -3.4D+00,  5.3D-01, r^2= 1.4D+01
   Bfn.  Coefficient  Atom+Function         Bfn.  Coefficient  Atom+Function  
  ----- ------------  ---------------      ----- ------------  ---------------
   352      0.174334  26 C  s         
 
 Vector   74  Occ=2.000000D+00  E=-8.819659D-01
              MO Center=  1.6D-01,  1.5D+00,  3.2D-01, r^2= 1.9D+01
   Bfn.  Coefficient  Atom+Function         Bfn.  Coefficient  Atom+Function  
  ----- ------------  ---------------      ----- ------------  ---------------
   116      0.210288   9 N  px              558     -0.186155  44 H  s         
    32     -0.151214   3 C  px        
 
 Vector   75  Occ=2.000000D+00  E=-8.726372D-01
              MO Center= -8.1D-01,  1.6D+00,  2.3D-01, r^2= 1.1D+01
   Bfn.  Coefficient  Atom+Function         Bfn.  Coefficient  Atom+Function  
  ----- ------------  ---------------      ----- ------------  ---------------
   174      0.227500  13 N  pz              573     -0.209284  47 H  s         
   172     -0.156635  13 N  px        
 
 Vector   76  Occ=2.000000D+00  E=-8.578544D-01
              MO Center=  1.1D-01, -4.1D+00, -2.2D-01, r^2= 1.2D+01
   Bfn.  Coefficient  Atom+Function         Bfn.  Coefficient  Atom+Function  
  ----- ------------  ---------------      ----- ------------  ---------------
   733      0.206930  79 H  s               326     -0.163839  24 N  px        
   633      0.161558  59 H  s               450      0.151935  33 C  s         
 
 Vector   77  Occ=2.000000D+00  E=-8.479735D-01
              MO Center= -4.8D+00,  2.8D+00, -2.6D-01, r^2= 4.5D+00
   Bfn.  Coefficient  Atom+Function         Bfn.  Coefficient  Atom+Function  
  ----- ------------  ---------------      ----- ------------  ---------------
   300      0.255764  22 N  pz              314      0.216766  23 N  pz        
   623      0.213187  57 H  s               286     -0.211640  21 C  pz        
   628     -0.207896  58 H  s               272      0.200498  20 N  pz        
   728      0.187687  78 H  s         
 
 Vector   78  Occ=2.000000D+00  E=-8.455300D-01
              MO Center= -2.6D-02, -3.6D+00,  2.6D-01, r^2= 7.0D+00
   Bfn.  Coefficient  Atom+Function         Bfn.  Coefficient  Atom+Function  
  ----- ------------  ---------------      ----- ------------  ---------------
   326      0.192506  24 N  px              633     -0.183237  59 H  s         
   668      0.174217  66 H  s               424      0.157950  31 N  px        
 
 Vector   79  Occ=2.000000D+00  E=-8.285297D-01
              MO Center= -3.2D+00,  1.2D+00, -1.0D+00, r^2= 9.0D+00
   Bfn.  Coefficient  Atom+Function         Bfn.  Coefficient  Atom+Function  
  ----- ------------  ---------------      ----- ------------  ---------------
   270      0.214977  20 N  px              258      0.170335  19 C  pz        
 
 Vector   80  Occ=2.000000D+00  E=-8.200708D-01
              MO Center= -2.6D-01,  2.8D+00,  2.5D-01, r^2= 1.2D+01
   Bfn.  Coefficient  Atom+Function         Bfn.  Coefficient  Atom+Function  
  ----- ------------  ---------------      ----- ------------  ---------------
   118      0.227384   9 N  pz              130      0.185017  10 C  px        
   145     -0.165721  11 C  py              558     -0.152243  44 H  s         
 
 Vector   81  Occ=2.000000D+00  E=-8.139231D-01
              MO Center=  2.4D+00, -4.3D+00,  9.0D-02, r^2= 1.7D+01
   Bfn.  Coefficient  Atom+Function         Bfn.  Coefficient  Atom+Function  
  ----- ------------  ---------------      ----- ------------  ---------------
   492      0.203374  36 C  s               688      0.169446  70 H  s         
   493      0.163901  36 C  s               426     -0.160085  31 N  pz        
 
 Vector   82  Occ=2.000000D+00  E=-8.122800D-01
              MO Center= -5.1D+00,  2.5D+00,  4.6D-02, r^2= 3.9D+00
   Bfn.  Coefficient  Atom+Function         Bfn.  Coefficient  Atom+Function  
  ----- ------------  ---------------      ----- ------------  ---------------
   299      0.310056  22 N  py              618     -0.277782  56 H  s         
   313      0.226695  23 N  py              628      0.227150  58 H  s         
   623      0.219268  57 H  s               285     -0.157622  21 C  py        
   302      0.156553  22 N  py        
 
 Vector   83  Occ=2.000000D+00  E=-8.036651D-01
              MO Center= -4.8D-01,  6.1D-01, -8.1D-03, r^2= 2.3D+01
   Bfn.  Coefficient  Atom+Function         Bfn.  Coefficient  Atom+Function  
  ----- ------------  ---------------      ----- ------------  ---------------
   187      0.140846  14 C  py              201     -0.129617  15 C  py        
 
 Vector   84  Occ=2.000000D+00  E=-7.901830D-01
              MO Center=  2.3D+00,  4.7D+00, -1.3D-01, r^2= 1.4D+01
   Bfn.  Coefficient  Atom+Function         Bfn.  Coefficient  Atom+Function  
  ----- ------------  ---------------      ----- ------------  ---------------
    60      0.228291   5 C  px               74     -0.183945   6 C  px        
    88     -0.181758   7 O  px        
 
 Vector   85  Occ=2.000000D+00  E=-7.855206D-01
              MO Center= -3.0D+00,  2.0D+00, -1.2D+00, r^2= 1.1D+01
   Bfn.  Coefficient  Atom+Function         Bfn.  Coefficient  Atom+Function  
  ----- ------------  ---------------      ----- ------------  ---------------
   271      0.291109  20 N  py              613      0.187027  55 H  s         
   257     -0.174836  19 C  py              274      0.174323  20 N  py        
 
 Vector   86  Occ=2.000000D+00  E=-7.756814D-01
              MO Center= -1.5D+00,  7.2D-01, -2.3D-01, r^2= 2.0D+01
   Bfn.  Coefficient  Atom+Function         Bfn.  Coefficient  Atom+Function  
  ----- ------------  ---------------      ----- ------------  ---------------
   284      0.151089  21 C  px        
 
 Vector   87  Occ=2.000000D+00  E=-7.731114D-01
              MO Center=  5.0D-01,  3.6D-01,  3.8D-01, r^2= 2.4D+01
   Bfn.  Coefficient  Atom+Function         Bfn.  Coefficient  Atom+Function  
  ----- ------------  ---------------      ----- ------------  ---------------
   342     -0.136618  25 C  pz              131      0.130721  10 C  py        
 
 Vector   88  Occ=2.000000D+00  E=-7.609378D-01
              MO Center= -1.3D-01,  2.2D+00,  3.2D-01, r^2= 1.7D+01
   Bfn.  Coefficient  Atom+Function         Bfn.  Coefficient  Atom+Function  
  ----- ------------  ---------------      ----- ------------  ---------------
   723     -0.131296  77 H  s                 4      0.127669   1 N  px        
   157     -0.125949  12 O  s         
 
 Vector   89  Occ=2.000000D+00  E=-7.491969D-01
              MO Center= -7.1D-01, -3.2D+00,  2.2D-02, r^2= 1.2D+01
   Bfn.  Coefficient  Atom+Function         Bfn.  Coefficient  Atom+Function  
  ----- ------------  ---------------      ----- ------------  ---------------
   396      0.184462  29 O  px              370      0.172622  27 O  pz        
 
 Vector   90  Occ=2.000000D+00  E=-7.413004D-01
              MO Center= -2.4D+00,  1.1D+00, -8.9D-01, r^2= 1.3D+01
   Bfn.  Coefficient  Atom+Function         Bfn.  Coefficient  Atom+Function  
  ----- ------------  ---------------      ----- ------------  ---------------
   603     -0.180405  53 H  s               258      0.173206  19 C  pz        
 
 Vector   91  Occ=2.000000D+00  E=-7.346021D-01
              MO Center=  4.8D-01,  1.4D+00,  7.5D-01, r^2= 3.0D+01
   Bfn.  Coefficient  Atom+Function         Bfn.  Coefficient  Atom+Function  
  ----- ------------  ---------------      ----- ------------  ---------------
    90      0.156809   7 O  pz        
 
 Vector   92  Occ=2.000000D+00  E=-7.312192D-01
              MO Center=  7.9D-01,  1.9D-01,  2.6D-01, r^2= 3.6D+01
   Bfn.  Coefficient  Atom+Function         Bfn.  Coefficient  Atom+Function  
  ----- ------------  ---------------      ----- ------------  ---------------
    90      0.161822   7 O  pz              396      0.160356  29 O  px        
 
 Vector   93  Occ=2.000000D+00  E=-7.237907D-01
              MO Center=  2.7D+00,  4.2D+00, -3.7D-01, r^2= 1.6D+01
   Bfn.  Coefficient  Atom+Function         Bfn.  Coefficient  Atom+Function  
  ----- ------------  ---------------      ----- ------------  ---------------
    75      0.189444   6 C  py               88     -0.183105   7 O  px        
   533     -0.172972  39 H  s               101      0.171199   8 O  s         
 
 Vector   94  Occ=2.000000D+00  E=-7.217176D-01
              MO Center=  7.5D-02,  3.6D-01,  4.4D-01, r^2= 2.3D+01
   Bfn.  Coefficient  Atom+Function         Bfn.  Coefficient  Atom+Function  
  ----- ------------  ---------------      ----- ------------  ---------------
    48      0.164007   4 O  pz        
 
 Vector   95  Occ=2.000000D+00  E=-7.142426D-01
              MO Center=  3.4D-01,  6.6D-02,  1.9D-01, r^2= 3.0D+01
   Bfn.  Coefficient  Atom+Function         Bfn.  Coefficient  Atom+Function  
  ----- ------------  ---------------      ----- ------------  ---------------
   398     -0.129978  29 O  pz              101      0.128645   8 O  s         
    75      0.126706   6 C  py              382      0.124060  28 C  px        
   468     -0.122635  34 O  pz        
 
 Vector   96  Occ=2.000000D+00  E=-7.102817D-01
              MO Center=  2.4D+00,  7.6D-01, -4.1D-01, r^2= 3.7D+01
   Bfn.  Coefficient  Atom+Function         Bfn.  Coefficient  Atom+Function  
  ----- ------------  ---------------      ----- ------------  ---------------
    90      0.154864   7 O  pz              103     -0.153912   8 O  py        
 
 Vector   97  Occ=2.000000D+00  E=-7.078157D-01
              MO Center=  6.9D-01, -1.4D+00,  1.5D-01, r^2= 3.2D+01
   Bfn.  Coefficient  Atom+Function         Bfn.  Coefficient  Atom+Function  
  ----- ------------  ---------------      ----- ------------  ---------------
   452      0.128557  33 C  px               90      0.126759   7 O  pz        
   398      0.122891  29 O  pz        
 
 Vector   98  Occ=2.000000D+00  E=-7.016132D-01
              MO Center= -3.5D-01,  2.6D+00, -5.4D-01, r^2= 1.5D+01
   Bfn.  Coefficient  Atom+Function         Bfn.  Coefficient  Atom+Function  
  ----- ------------  ---------------      ----- ------------  ---------------
   533      0.175554  39 H  s         
 
 Vector   99  Occ=2.000000D+00  E=-7.004343D-01
              MO Center= -1.1D+00,  2.5D-01,  4.6D-01, r^2= 1.8D+01
   Bfn.  Coefficient  Atom+Function         Bfn.  Coefficient  Atom+Function  
  ----- ------------  ---------------      ----- ------------  ---------------
   230      0.148393  17 C  pz              188     -0.134024  14 C  pz        
 
 Vector  100  Occ=2.000000D+00  E=-6.990111D-01
              MO Center= -1.3D+00, -1.3D+00, -2.3D-01, r^2= 1.8D+01
   Bfn.  Coefficient  Atom+Function         Bfn.  Coefficient  Atom+Function  
  ----- ------------  ---------------      ----- ------------  ---------------
   242      0.168332  18 C  px        
 
 Vector  101  Occ=2.000000D+00  E=-6.917419D-01
              MO Center= -1.2D+00,  2.0D+00, -3.3D-01, r^2= 1.5D+01
   Bfn.  Coefficient  Atom+Function         Bfn.  Coefficient  Atom+Function  
  ----- ------------  ---------------      ----- ------------  ---------------
   144      0.160602  11 C  px        
 
 Vector  102  Occ=2.000000D+00  E=-6.852361D-01
              MO Center=  1.6D-01, -5.1D+00, -9.2D-01, r^2= 1.1D+01
   Bfn.  Coefficient  Atom+Function         Bfn.  Coefficient  Atom+Function  
  ----- ------------  ---------------      ----- ------------  ---------------
   468      0.328528  34 O  pz              454     -0.246640  33 C  pz        
   471      0.198219  34 O  pz              370      0.179123  27 O  pz        
   465     -0.179670  34 O  s               356     -0.157923  26 C  pz        
 
 Vector  103  Occ=2.000000D+00  E=-6.794406D-01
              MO Center=  1.3D+00, -3.9D+00,  1.3D-02, r^2= 1.7D+01
   Bfn.  Coefficient  Atom+Function         Bfn.  Coefficient  Atom+Function  
  ----- ------------  ---------------      ----- ------------  ---------------
   370      0.190471  27 O  pz              425     -0.166579  31 N  py        
   354     -0.159939  26 C  px        
 
 Vector  104  Occ=2.000000D+00  E=-6.739471D-01
              MO Center= -6.4D-01, -1.8D+00, -9.1D-03, r^2= 1.8D+01
   Bfn.  Coefficient  Atom+Function         Bfn.  Coefficient  Atom+Function  
  ----- ------------  ---------------      ----- ------------  ---------------
   214      0.226825  16 O  px        
 
 Vector  105  Occ=2.000000D+00  E=-6.712999D-01
              MO Center= -6.8D-01,  9.2D-01, -2.8D-02, r^2= 1.6D+01
   Bfn.  Coefficient  Atom+Function         Bfn.  Coefficient  Atom+Function  
  ----- ------------  ---------------      ----- ------------  ---------------
   214      0.183081  16 O  px        
 
 Vector  106  Occ=2.000000D+00  E=-6.610689D-01
              MO Center=  2.3D+00,  4.2D+00,  2.5D-01, r^2= 1.5D+01
   Bfn.  Coefficient  Atom+Function         Bfn.  Coefficient  Atom+Function  
  ----- ------------  ---------------      ----- ------------  ---------------
    90      0.250199   7 O  pz               48     -0.177820   4 O  pz        
    93      0.171570   7 O  pz               62     -0.160918   5 C  pz        
   543      0.158476  41 H  s         
 
 Vector  107  Occ=2.000000D+00  E=-6.572717D-01
              MO Center=  9.5D-01, -3.1D+00,  8.3D-02, r^2= 2.2D+01
   Bfn.  Coefficient  Atom+Function         Bfn.  Coefficient  Atom+Function  
  ----- ------------  ---------------      ----- ------------  ---------------
   341      0.140261  25 C  py              356     -0.138030  26 C  pz        
 
 Vector  108  Occ=2.000000D+00  E=-6.491150D-01
              MO Center=  2.4D+00, -4.7D+00, -1.2D-01, r^2= 1.6D+01
   Bfn.  Coefficient  Atom+Function         Bfn.  Coefficient  Atom+Function  
  ----- ------------  ---------------      ----- ------------  ---------------
   468      0.160828  34 O  pz        
 
 Vector  109  Occ=2.000000D+00  E=-6.481218D-01
              MO Center= -1.2D+00, -1.5D-01,  1.9D-01, r^2= 1.7D+01
   Bfn.  Coefficient  Atom+Function         Bfn.  Coefficient  Atom+Function  
  ----- ------------  ---------------      ----- ------------  ---------------
   244      0.180476  18 C  pz              598     -0.160460  52 H  s         
   328      0.154190  24 N  pz        
 
 Vector  110  Occ=2.000000D+00  E=-6.460016D-01
              MO Center=  1.8D+00,  3.9D+00,  4.0D-01, r^2= 1.4D+01
   Bfn.  Coefficient  Atom+Function         Bfn.  Coefficient  Atom+Function  
  ----- ------------  ---------------      ----- ------------  ---------------
    88      0.196959   7 O  px              132      0.166417  10 C  pz        
   118     -0.159275   9 N  pz               48     -0.152009   4 O  pz        
 
 Vector  111  Occ=2.000000D+00  E=-6.398224D-01
              MO Center=  1.1D+00,  3.7D+00,  5.3D-01, r^2= 6.8D+00
   Bfn.  Coefficient  Atom+Function         Bfn.  Coefficient  Atom+Function  
  ----- ------------  ---------------      ----- ------------  ---------------
    34      0.288751   3 C  pz               47      0.272154   4 O  py        
   117      0.194295   9 N  py               50      0.177915   4 O  py        
 
 Vector  112  Occ=2.000000D+00  E=-6.361355D-01
              MO Center= -6.3D-02, -3.6D+00,  2.6D-02, r^2= 1.2D+01
   Bfn.  Coefficient  Atom+Function         Bfn.  Coefficient  Atom+Function  
  ----- ------------  ---------------      ----- ------------  ---------------
   368      0.163610  27 O  px              355      0.156166  26 C  py        
 
 Vector  113  Occ=2.000000D+00  E=-6.299196D-01
              MO Center= -1.8D+00,  5.5D-01, -1.4D-01, r^2= 1.3D+01
   Bfn.  Coefficient  Atom+Function         Bfn.  Coefficient  Atom+Function  
  ----- ------------  ---------------      ----- ------------  ---------------
   228      0.184550  17 C  px              583      0.162553  49 H  s         
   270      0.151355  20 N  px        
 
 Vector  114  Occ=2.000000D+00  E=-6.232460D-01
              MO Center= -1.4D+00, -6.3D-01, -4.4D-01, r^2= 1.4D+01
   Bfn.  Coefficient  Atom+Function         Bfn.  Coefficient  Atom+Function  
  ----- ------------  ---------------      ----- ------------  ---------------
   583      0.174530  49 H  s               228      0.163009  17 C  px        
   588     -0.162777  50 H  s         
 
 Vector  115  Occ=2.000000D+00  E=-6.192119D-01
              MO Center=  7.9D-01,  2.8D+00, -7.8D-01, r^2= 1.9D+01
   Bfn.  Coefficient  Atom+Function         Bfn.  Coefficient  Atom+Function  
  ----- ------------  ---------------      ----- ------------  ---------------
   229      0.181765  17 C  py              243     -0.175028  18 C  py        
   103      0.170266   8 O  py              588     -0.167799  50 H  s         
    61      0.163543   5 C  py              593     -0.156784  51 H  s         
 
 Vector  116  Occ=2.000000D+00  E=-6.168100D-01
              MO Center=  1.5D+00,  3.1D+00, -4.8D-01, r^2= 2.2D+01
   Bfn.  Coefficient  Atom+Function         Bfn.  Coefficient  Atom+Function  
  ----- ------------  ---------------      ----- ------------  ---------------
   103      0.205675   8 O  py               62      0.169376   5 C  pz        
    88     -0.168599   7 O  px              229     -0.154835  17 C  py        
   548      0.151582  42 H  s         
 
 Vector  117  Occ=2.000000D+00  E=-6.069154D-01
              MO Center= -1.9D+00, -2.3D+00,  2.2D+00, r^2= 9.1D+00
   Bfn.  Coefficient  Atom+Function         Bfn.  Coefficient  Atom+Function  
  ----- ------------  ---------------      ----- ------------  ---------------
   397      0.288391  29 O  py              411     -0.266971  30 C  py        
   663     -0.243288  65 H  s               658      0.219975  64 H  s         
   400      0.217108  29 O  py        
 
 Vector  118  Occ=2.000000D+00  E=-6.053289D-01
              MO Center= -4.9D-01,  1.5D+00,  7.2D-01, r^2= 1.8D+01
   Bfn.  Coefficient  Atom+Function         Bfn.  Coefficient  Atom+Function  
  ----- ------------  ---------------      ----- ------------  ---------------
   158      0.158741  12 O  px              397      0.152630  29 O  py        
 
 Vector  119  Occ=2.000000D+00  E=-6.023300D-01
              MO Center= -2.2D-01, -1.4D+00, -1.3D-01, r^2= 3.3D+01
   Bfn.  Coefficient  Atom+Function         Bfn.  Coefficient  Atom+Function  
  ----- ------------  ---------------      ----- ------------  ---------------
   298      0.188088  22 N  px              312     -0.188420  23 N  px        
   315     -0.162420  23 N  px              301      0.158333  22 N  px        
   673     -0.152039  67 H  s         
 
 Vector  120  Occ=2.000000D+00  E=-6.003014D-01
              MO Center= -3.3D+00,  9.3D-01,  3.6D-02, r^2= 2.5D+01
   Bfn.  Coefficient  Atom+Function         Bfn.  Coefficient  Atom+Function  
  ----- ------------  ---------------      ----- ------------  ---------------
   298      0.330491  22 N  px              312     -0.305711  23 N  px        
   301      0.278766  22 N  px              315     -0.263622  23 N  px        
   300      0.174397  22 N  pz              314     -0.168714  23 N  pz        
 
 Vector  121  Occ=2.000000D+00  E=-5.969187D-01
              MO Center=  7.9D-01,  2.1D+00,  4.7D-01, r^2= 2.2D+01
   Bfn.  Coefficient  Atom+Function         Bfn.  Coefficient  Atom+Function  
  ----- ------------  ---------------      ----- ------------  ---------------
   118      0.139398   9 N  pz              563     -0.139372  45 H  s         
    61      0.135771   5 C  py               33      0.135078   3 C  py        
    88      0.133468   7 O  px              132     -0.126386  10 C  pz        
 
 Vector  122  Occ=2.000000D+00  E=-5.875549D-01
              MO Center=  3.2D+00, -5.1D+00,  3.2D-01, r^2= 1.5D+01
   Bfn.  Coefficient  Atom+Function         Bfn.  Coefficient  Atom+Function  
  ----- ------------  ---------------      ----- ------------  ---------------
   693     -0.241664  71 H  s               510      0.222999  37 C  pz        
   509      0.194208  37 C  py              703      0.191101  73 H  s         
 
 Vector  123  Occ=2.000000D+00  E=-5.842627D-01
              MO Center= -5.6D-02, -2.1D+00,  1.2D-01, r^2= 1.9D+01
[...]
 -----------   ------   -------------------------------------------------------
    1 N    7     7.28   2.00  0.75  0.68  2.33  1.49  0.03
    2 C    6     5.99   2.01  0.66  0.46  2.00  0.73  0.12
    3 C    6     5.63   2.00  0.70  0.36  1.88  0.44  0.24
    4 O    8     8.42   2.00  0.85  0.95  2.76  1.85  0.02
    5 C    6     6.15   2.01  0.65  0.45  2.02  0.96  0.07
    6 C    6     5.59   2.00  0.70  0.29  1.88  0.42  0.28
    7 O    8     8.26   2.00  0.83  0.86  2.86  1.69  0.02
    8 O    8     8.38   2.00  0.85  0.93  2.77  1.82  0.02
    9 N    7     7.42   2.00  0.72  0.72  2.43  1.52  0.03
   10 C    6     5.84   2.00  0.67  0.34  1.99  0.75  0.10
   11 C    6     5.64   2.00  0.71  0.35  1.88  0.46  0.24
   12 O    8     8.49   2.00  0.84  0.94  2.78  1.91  0.02
   13 N    7     7.36   2.00  0.72  0.72  2.42  1.46  0.03
   14 C    6     6.00   2.01  0.66  0.43  1.99  0.80  0.12
   15 C    6     5.54   2.00  0.70  0.30  1.89  0.40  0.24
   16 O    8     8.43   2.00  0.84  0.94  2.77  1.86  0.02
   17 C    6     6.05   2.01  0.65  0.46  2.00  0.86  0.08
   18 C    6     6.08   2.01  0.65  0.46  1.99  0.89  0.08
   19 C    6     5.92   2.00  0.66  0.42  1.96  0.78  0.10
   20 N    7     7.35   2.00  0.72  0.70  2.45  1.44  0.04
   21 C    6     5.44   2.00  0.71  0.21  1.92  0.34  0.24
   22 N    7     7.28   2.00  0.71  0.67  2.42  1.44  0.02
   23 N    7     7.25   2.00  0.71  0.63  2.44  1.44  0.02
   24 N    7     7.34   2.00  0.72  0.72  2.43  1.44  0.03
   25 C    6     5.99   2.01  0.65  0.46  1.98  0.78  0.11
   26 C    6     5.53   2.00  0.70  0.29  1.89  0.39  0.24
   27 O    8     8.43   2.00  0.84  0.93  2.79  1.85  0.02
   28 C    6     5.86   2.00  0.66  0.45  1.91  0.70  0.13
   29 O    8     8.48   2.00  0.84  0.97  2.75  1.91  0.01
   30 C    6     6.07   2.00  0.65  0.43  1.99  0.94  0.06
   31 N    7     7.39   2.00  0.72  0.72  2.43  1.49  0.03
   32 C    6     6.00   2.01  0.66  0.46  1.99  0.76  0.12
   33 C    6     5.63   2.00  0.71  0.34  1.90  0.51  0.17
   34 O    8     8.30   2.00  0.85  0.91  2.78  1.74  0.02
   35 C    6     6.03   2.01  0.65  0.43  2.00  0.87  0.08
   36 C    6     6.23   2.01  0.64  0.57  2.01  0.90  0.10
   37 C    6     6.04   2.00  0.65  0.43  1.97  0.92  0.06
   38 C    6     6.05   2.00  0.65  0.43  1.98  0.93  0.06
   39 H    1     0.86   0.68  0.13  0.05
   40 H    1     0.87   0.72  0.12  0.03
   41 H    1     0.95   0.73  0.19  0.03
   42 H    1     0.90   0.72  0.15  0.03
   43 H    1     0.74   0.60  0.08  0.07
   44 H    1     0.85   0.68  0.13  0.05
   45 H    1     0.86   0.70  0.12  0.03
   46 H    1     0.94   0.74  0.17  0.03
   47 H    1     0.83   0.67  0.11  0.05
   48 H    1     0.96   0.74  0.19  0.03
   49 H    1     0.91   0.73  0.15  0.03
   50 H    1     0.92   0.73  0.15  0.03
   51 H    1     0.97   0.74  0.21  0.03
   52 H    1     0.91   0.73  0.15  0.03
   53 H    1     0.89   0.73  0.14  0.03
   54 H    1     0.93   0.73  0.17  0.03
   55 H    1     0.81   0.67  0.09  0.05
   56 H    1     0.79   0.64  0.09  0.05
   57 H    1     0.78   0.64  0.08  0.05
   58 H    1     0.80   0.65  0.10  0.05
   59 H    1     0.84   0.67  0.12  0.05
   60 H    1     0.89   0.72  0.15  0.03
   61 H    1     0.95   0.75  0.17  0.03
   62 H    1     0.76   0.59  0.11  0.06
   63 H    1     0.97   0.74  0.20  0.03
   64 H    1     0.93   0.73  0.17  0.03
   65 H    1     0.92   0.72  0.17  0.03
   66 H    1     0.83   0.67  0.11  0.05
   67 H    1     0.91   0.73  0.15  0.03
   68 H    1     0.96   0.74  0.20  0.03
   69 H    1     0.93   0.73  0.17  0.03
   70 H    1     0.99   0.75  0.21  0.03
   71 H    1     0.95   0.73  0.19  0.03
   72 H    1     0.94   0.73  0.18  0.03
   73 H    1     0.96   0.73  0.20  0.03
   74 H    1     0.95   0.73  0.19  0.03
   75 H    1     0.95   0.73  0.19  0.03
   76 H    1     0.95   0.73  0.18  0.03
   77 H    1     0.94   0.74  0.14  0.06
   78 H    1     0.85   0.72  0.07  0.06
   79 H    1     1.00   0.80  0.17  0.03
 
       Multipole analysis of the density wrt the origin
       ------------------------------------------------
 
     L   x y z        total         open         nuclear
     -   - - -        -----         ----         -------
     0   0 0 0      1.000000      0.000000    293.000000
 
     1   1 0 0     -9.559818      0.000000      0.000000
     1   0 1 0      6.367716      0.000000      0.000000
     1   0 0 1      0.449961      0.000000      0.000000
 
     2   2 0 0   -102.295044      0.000000   9285.601705
     2   1 1 0    -51.726008      0.000000   -325.019206
     2   1 0 1     10.481348      0.000000      9.772094
     2   0 2 0    -72.285652      0.000000  18185.756624
     2   0 1 1    -31.721154      0.000000   -124.980609
     2   0 0 2   -165.516655      0.000000   1947.338158
 
 -----------------------
 Performance information
 -----------------------

 Timer overhead =  8.00D-07 seconds/call

               Nr. of calls         CPU time (s)                 Wall time (s)                GFlops
             ---------------    -------------------     ------------------------------   -------------------
Name         Min   Avg   Max    Min     Avg     Max     Min     Avg     Max   Mx/calls   Min     Max     Sum
scf: solv     5     5     5   1.56E+2 1.57E+2 1.57E+2  1.58E+2 1.58E+2 1.58E+2  32.      0.0     0.0     0.0   
scf: sear     7     7     7    50.     52.     52.      52.     52.     52.     7.5      0.0     0.0     0.0   
scf: fock    26    26    26   1.76E+2 1.77E+2 1.79E+2  1.76E+2 1.78E+2 1.80E+2  6.9      0.0     0.0     0.0   
scf: int-    23    23    23   0.25    0.28    0.33     0.29    0.29    0.31    1.37E-2   0.0     0.0     0.0   
scf: mate    11    11    11    2.4     2.5     2.6      2.6     2.6     2.6    0.23      0.0     0.0     0.0   
scf: orth     1     1     1   0.84    0.91    0.92     0.92    0.92    0.92    0.92      0.0     0.0     0.0   
scf: diag     4     4     4    2.7     2.8     2.8      2.8     2.8     2.8    0.71      0.0     0.0     0.0   
scf: veci     3     3     3   6.80E-2 0.12    0.12     0.12    0.12    0.12    4.09E-2   0.0     0.0     0.0   
scf: k2cf    11    11    11    3.1     3.3     3.4      3.3     3.3     3.3    0.30      0.0     0.0     0.0   
scf: mull     1     1     1   0.18    0.19    0.20     0.20    0.20    0.20    0.20      0.0     0.0     0.0   
scf: mult     1     1     1   0.11    0.22    0.22     0.22    0.22    0.22    0.22      0.0     0.0     0.0   
scf: moan     1     1     1   0.58    0.73    0.79     0.74    0.74    0.90    0.90      0.0     0.0     0.0   
scf: tota     1     1     1   2.25E+2 2.36E+2 2.37E+2  2.38E+2 2.38E+2 2.38E+2 2.38E+2   0.0     0.0     0.0   

 The average no. of pstat calls per process was 9.50D+01
 with a timing overhead of 7.60D-05s

                   NWChem Extensible Many-Electron Theory Module
                   ---------------------------------------------
 
              ======================================================
                   This portion of the program was automatically
                  generated by a Tensor Contraction Engine (TCE).
                  The development of this portion of the program
                 and TCE was supported by US Department of Energy,
                Office of Science, Office of Basic Energy Science.
                      TCE is a product of Battelle and PNNL.
              Please cite: S.Hirata, J.Phys.Chem.A 107, 9887 (2003).
              ======================================================
 
                                E and Grad of 1UBQ
 
 
            General Information
            -------------------
      Number of processors :  ****
         Wavefunction type : Restricted Hartree-Fock
          No. of electrons :   292
           Alpha electrons :   146
            Beta electrons :   146
           No. of orbitals :  1474
            Alpha orbitals :   737
             Beta orbitals :   737
        Alpha frozen cores :     0
         Beta frozen cores :     0
     Alpha frozen virtuals :     0
      Beta frozen virtuals :     0
         Spin multiplicity : singlet 
    Number of AO functions :   737
       Number of AO shells :   351
        Use of symmetry is : off
      Symmetry adaption is : off
         Schwarz screening : 0.10D-09
 
          Correlation Information
          -----------------------
          Calculation type : Coupled-cluster singles & doubles                           
   Perturbative correction : none                                                        
            Max iterations :      100
        Residual threshold : 0.10D-02
     T(0) DIIS level shift : 0.00D+00
     L(0) DIIS level shift : 0.00D+00
     T(1) DIIS level shift : 0.00D+00
     L(1) DIIS level shift : 0.00D+00
     T(R) DIIS level shift : 0.00D+00
     T(I) DIIS level shift : 0.00D+00
   CC-T/L Amplitude update :  5-th order DIIS
                I/O scheme : Global Array Library
        L-threshold :  0.10D-02
        EOM-threshold :  0.10D-02
 no EOMCCSD initial starts read in
 TCE RESTART OPTIONS
 READ_INT:    F
 WRITE_INT:   T
 READ_TA:     F
 WRITE_TA:    F
 READ_XA:     F
 WRITE_XA:    F
 READ_IN3:    F
 WRITE_IN3:   F
 SLICE:       F
 D4D5:        F
 
            Memory Information
            ------------------
          Available GA space size is    ********** doubles
          Available MA space size is      87235860 doubles
 
 Maximum block size supplied by input
 Maximum block size        35 doubles

 tile_dim =     35

 Block   Spin    Irrep     Size     Offset   Alpha
 -------------------------------------------------
   1    alpha     a     29 doubles       0       1
   2    alpha     a     29 doubles      29       2
   3    alpha     a     29 doubles      58       3
   4    alpha     a     29 doubles      87       4
   5    alpha     a     30 doubles     116       5
   6    beta      a     29 doubles     146       1
   7    beta      a     29 doubles     175       2
   8    beta      a     29 doubles     204       3
   9    beta      a     29 doubles     233       4
  10    beta      a     30 doubles     262       5
  11    alpha     a     34 doubles     292      11
  12    alpha     a     35 doubles     326      12
  13    alpha     a     35 doubles     361      13
  14    alpha     a     35 doubles     396      14
  15    alpha     a     34 doubles     431      15
  16    alpha     a     35 doubles     465      16
  17    alpha     a     35 doubles     500      17
  18    alpha     a     35 doubles     535      18
  19    alpha     a     34 doubles     570      19
  20    alpha     a     35 doubles     604      20
  21    alpha     a     35 doubles     639      21
  22    alpha     a     35 doubles     674      22
  23    alpha     a     34 doubles     709      23
  24    alpha     a     35 doubles     743      24
  25    alpha     a     35 doubles     778      25
  26    alpha     a     35 doubles     813      26
  27    alpha     a     35 doubles     848      27
  28    beta      a     34 doubles     883      11
  29    beta      a     35 doubles     917      12
  30    beta      a     35 doubles     952      13
  31    beta      a     35 doubles     987      14
  32    beta      a     34 doubles    1022      15
  33    beta      a     35 doubles    1056      16
  34    beta      a     35 doubles    1091      17
  35    beta      a     35 doubles    1126      18
  36    beta      a     34 doubles    1161      19
  37    beta      a     35 doubles    1195      20
  38    beta      a     35 doubles    1230      21
  39    beta      a     35 doubles    1265      22
  40    beta      a     34 doubles    1300      23
  41    beta      a     35 doubles    1334      24
  42    beta      a     35 doubles    1369      25
  43    beta      a     35 doubles    1404      26
  44    beta      a     35 doubles    1439      27

 Global array virtual files algorithm will be used

 Parallel file system coherency ......... OK
 size_1e                   543169
  0 ga offset                   0 size_xx_perproc              135792mx    4
 WRITE TENSOR
  filename: /lustre/atlas/scratch/hjjvd/csc249/.3632584/nwc_gbe_dat.f1int.000000            
  3 ga offset              407376 size_xx_perproc              135793mx    4
  1 ga offset              135792 size_xx_perproc              135792mx    4
  unit nr:       77
  file size:         135792
  rec_mem (KB):     2048
  rec_size:         262144
  number of tasks:            1
  2 ga offset              271584 size_xx_perproc              135792mx    4
 
 Fock matrix recomputed
 1-e file size   =           543169
 1-e file name   = /lustre/atlas/scratch/hjjvd/csc249/.3632584/nwc_gbe_dat.f1int.000000
 Cpu & wall time / sec            9.2            9.4
 4-electron integrals stored in orbital form
 
 v2    file size   =      40486488431
 4-index algorithm nr.  15 is used
 imaxsize =       35
 imaxsize ichop =        0
 starting step 1 at               759.24 secs 
 starting step 2 at               813.59 secs 
 starting step 3 at               836.26 secs 
 starting step 4 at               872.03 secs 
 done step 4 at               940.09 secs 
  1 ga offset         10121622107 size_xx_perproc         10121622107mx    4
  0 ga offset                   0 size_xx_perproc         10121622107mx    4
  3 ga offset         30364866321 size_xx_perproc         10121622110mx    4
 WRITE TENSOR
  filename: /lustre/atlas/scratch/hjjvd/csc249/.3632584/nwc_gbe_dat.v2int.000000            
  unit nr:      178
  file size:    10121622107
  rec_mem (KB):     2048
  rec_size:         262144
  number of tasks:        38611
  2 ga offset         20243244214 size_xx_perproc         10121622107mx    4
 Cpu & wall time / sec          284.8          600.5
 T1-number-of-tasks                       85
 
 t1 file size   =            86286
 t1 file name   = /lustre/atlas/scratch/hjjvd/csc249/.3632584/nwc_gbe_dat.t1
 t1 file handle =       -998
 T2-number-of-boxes                     9520
 
 t2 file size   =       9810336646
 t2 file name   = /lustre/atlas/scratch/hjjvd/csc249/.3632584/nwc_gbe_dat.t2
 t2 file handle =       -996
CCSD iterations
 ---------------------------------------------------------
 Iter          Residuum       Correlation     Cpu    Wall 
 ---------------------------------------------------------
NEW TASK SCHEDULING
CCSD_T1_NTS --- OK
CCSD_T2_NTS --- OK
    1   0.6007200645295  -5.9446154370759  2036.9  2046.7
    2   0.1638689580869  -6.0501562461017  2070.9  2081.7
    3   0.0590837907241  -6.1670529244074  2117.7  2144.5
    4   0.0264838032392  -6.1811463382723  2150.8  2166.1
    5   0.0114687251785  -6.1930393286791  2065.9  2076.0
 MICROCYCLE DIIS UPDATE:                        5                        5
    6   0.0038035306776  -6.1975827215739  2094.5  2104.6
    7   0.0020999557866  -6.1982451672112  2144.3  2178.4
    8   0.0009858240422  -6.1983574582290  2049.5  2060.0
 -----------------------------------------------------------------
 Iterations converged
 CCSD correlation energy / hartree =        -6.198357458229001
 CCSD total energy / hartree       =     -1897.464027742517828

 Singles contributions

 Doubles contributions

 Task  times  cpu:    18278.9s     wall:    18749.9s
 
 
                                NWChem Input Module
                                -------------------
 
 
 Summary of allocated global arrays
-----------------------------------
  No active global arrays



                         GA Statistics for process    0
                         ------------------------------

       create   destroy   get      put      acc     scatter   gather  read&inc
calls:  881      881     8.74e+04 2483     2159        0        0     1771     
number of processes/call 1.41e+01 8.41e+01 3.09e+01 0.00e+00 0.00e+00
bytes total:             4.08e+11 8.90e+08 9.42e+08 0.00e+00 0.00e+00 1.42e+04
bytes remote:            4.08e+11 7.48e+08 9.34e+08 0.00e+00 0.00e+00 4.73e+03
Max memory consumed for GA by this process: 97388088 bytes
 
MA_summarize_allocated_blocks: starting scan ...
MA_summarize_allocated_blocks: scan completed: 0 heap blocks, 0 stack blocks
MA usage statistics:

	allocation statistics:
					      heap	     stack
					      ----	     -----
	current number of blocks	         0	         0
	maximum number of blocks	        16	        42
	current total bytes		         0	         0
	maximum total bytes		    445872	 445395352
	maximum total K-bytes		       446	    445396
	maximum total M-bytes		         1	       446
 
 
                                     CITATION
                                     --------
                Please cite the following reference when publishing
                           results obtained with NWChem:
 
                 M. Valiev, E.J. Bylaska, N. Govind, K. Kowalski,
              T.P. Straatsma, H.J.J. van Dam, D. Wang, J. Nieplocha,
                        E. Apra, T.L. Windus, W.A. de Jong
                 "NWChem: a comprehensive and scalable open-source
                  solution for large scale molecular simulations"
                      Comput. Phys. Commun. 181, 1477 (2010)
                           doi:10.1016/j.cpc.2010.04.018
 
                                      AUTHORS
                                      -------
          E. Apra, E. J. Bylaska, W. A. de Jong, N. Govind, K. Kowalski,
       T. P. Straatsma, M. Valiev, H. J. J. van Dam, D. Wang, T. L. Windus,
        J. Hammond, J. Autschbach, K. Bhaskaran-Nair, J. Brabec, K. Lopata,
       S. A. Fischer, S. Krishnamoorthy, W. Ma, M. Klemm, O. Villa, Y. Chen,
    V. Anisimov, F. Aquino, S. Hirata, M. T. Hackler, V. Konjkov, T. Risthaus,
       M. Malagoli, A. Marenich, A. Otero-de-la-Roza, J. Mullin, P. Nichols,
      R. Peverati, J. Pittner, Y. Zhao, P.-D. Fan, A. Fonari, M. Williamson,
      R. J. Harrison, J. R. Rehr, M. Dupuis, D. Silverstein, D. M. A. Smith,
            J. Nieplocha, V. Tipparaju, M. Krishnan, B. E. Van Kuiken,
        A. Vazquez-Mayagoitia, L. Jensen, M. Swart, Q. Wu, T. Van Voorhis,
     A. A. Auer, M. Nooijen, L. D. Crosby, E. Brown, G. Cisneros, G. I. Fann,
   H. Fruchtl, J. Garza, K. Hirao, R. A. Kendall, J. A. Nichols, K. Tsemekhman,
    K. Wolinski, J. Anchell, D. E. Bernholdt, P. Borowski, T. Clark, D. Clerc,
   H. Dachsel, M. J. O. Deegan, K. Dyall, D. Elwood, E. Glendening, M. Gutowski,
   A. C. Hess, J. Jaffe, B. G. Johnson, J. Ju, R. Kobayashi, R. Kutteh, Z. Lin,
   R. Littlefield, X. Long, B. Meng, T. Nakajima, S. Niu, L. Pollack, M. Rosing,
   K. Glaesemann, G. Sandrone, M. Stave, H. Taylor, G. Thomas, J. H. van Lenthe,
                               A. T. Wong, Z. Zhang.

 Total times  cpu:    18279.9s     wall:    18752.3s
Application 15973985 network throttled: 2048 nodes throttled, 93:13:54 node-seconds
Application 15973985 balanced injection 100, after throttle 100
Application 15973985 resources: utime ~611619318s, stime ~2639497s, Rss ~1095300, inblocks ~206349744, outblocks ~1334017411
total 316488412
-rw------- 1 hjjvd hjjvd         978 Sep 29 05:06 nwc_gbe_pvdz_rhf.nw
-rw------- 1 hjjvd hjjvd       12141 Sep 29 05:06 dgrtl.pdb
-rwx------ 1 hjjvd hjjvd   175324756 Sep 29 05:06 nwchem
-rw------- 1 hjjvd hjjvd     4345387 Sep 29 05:10 nwc_gbe_dat.cfock
-rw------- 1 hjjvd hjjvd     4363376 Sep 29 05:10 nwc_gbe_dat.movecs
-rw------- 1 hjjvd hjjvd     1086360 Sep 29 05:19 nwc_gbe_dat.f1int.000003
-rw------- 1 hjjvd hjjvd     1086352 Sep 29 05:19 nwc_gbe_dat.f1int.000002
-rw------- 1 hjjvd hjjvd     1086352 Sep 29 05:19 nwc_gbe_dat.f1int.000001
-rw------- 1 hjjvd hjjvd     1086352 Sep 29 05:19 nwc_gbe_dat.f1int.000000
-rw------- 1 hjjvd hjjvd 80972976896 Sep 29 05:29 nwc_gbe_dat.v2int.000003
-rw------- 1 hjjvd hjjvd 80972976872 Sep 29 05:29 nwc_gbe_dat.v2int.000002
-rw------- 1 hjjvd hjjvd 80972976872 Sep 29 05:29 nwc_gbe_dat.v2int.000001
-rw------- 1 hjjvd hjjvd 80972976872 Sep 29 05:29 nwc_gbe_dat.v2int.000000
-rw------- 1 hjjvd hjjvd     3668813 Sep 29 10:19 nwc_gbe_dat.db
