/autofs/nccs-svm1_home1/hjjvd
CODAR
NWX_TA
Nwchem-6.6.revision27746-src.2015-10-20.tar.gz
bin
lib
man
summitdev
titan
tksvn
PE 0: MPICH Warning: DMAPP optimizations are not supported if libdmapp is not linked into your application. Please see the mpi man page. Disabling all requested DMAPP optimizations.
 argument  1 = nwc_gbe_631g_rhf.nw
 


============================== echo of input deck ==============================
echo
start nwc_gbe_dat
title "E and Grad of 1UBQ"
#memory stack 800 mb heap 100 mb global 2000 mb noverify
geometry noautoz
   load format pdb "dgrtl.pdb"
end
basis 631g spherical
  * library 6-31g
end
basis 631gp spherical
  * library 6-31g*
end
basis pvtz spherical
  * library cc-pVTZ
end
basis apvtz spherical
  * library aug-cc-pVTZ
end

set "ao basis" 631g
charge +1
scf
  thresh 1.0e-6
  tol2e 1.0e-10
  singlet
  rhf
  maxiter 300
end

tce
  2eorb
  2emet 15
  tilesize 40
  attilesize 45
  thresh 1.0e-3
  maxiter 100
end

set tce:nts T

### tce restart ########
#
# when generating 2-electron integrals for the first time:
# uncomment "set tce:writeint T"
# in following runs please
# comment  "set tce:writeint T"
# and
# uncomment "set tce:readint T"
# it will save time :-)
#
set tce:tceiop 2048
set tce:writeint T
#set tce:readint T
#######################

task tce energy
================================================================================


                                         
                                         
 
 
              Northwest Computational Chemistry Package (NWChem) 6.6
              ------------------------------------------------------
 
 
                    Environmental Molecular Sciences Laboratory
                       Pacific Northwest National Laboratory
                                Richland, WA 99352
 
                              Copyright (c) 1994-2015
                       Pacific Northwest National Laboratory
                            Battelle Memorial Institute
 
             NWChem is an open-source computational chemistry package
                        distributed under the terms of the
                      Educational Community License (ECL) 2.0
             A copy of the license is included with this distribution
                              in the LICENSE.TXT file
 
                                  ACKNOWLEDGMENT
                                  --------------

            This software and its documentation were developed at the
            EMSL at Pacific Northwest National Laboratory, a multiprogram
            national laboratory, operated for the U.S. Department of Energy
            by Battelle under Contract Number DE-AC05-76RL01830. Support
            for this work was provided by the Department of Energy Office
            of Biological and Environmental Research, Office of Basic
            Energy Sciences, and the Office of Advanced Scientific Computing.


           Job information
           ---------------

    hostname        = nid16772
    program         = /lustre/atlas/scratch/hjjvd/csc242/.3598750/nwchem
    date            = Sun Sep  3 04:21:56 2017

    compiled        = Fri_Sep_01_15:52:17_2017
    source          = /ccs/home/hjjvd/titan/nwchem-dev
    nwchem branch   = Development
    nwchem revision = 29350
    ga revision     = N/A
    input           = nwc_gbe_631g_rhf.nw
    prefix          = nwc_gbe_dat.
    data base       = /lustre/atlas/scratch/hjjvd/csc242/.3598750/nwc_gbe_dat.db
    status          = startup
    nproc           =     7680
    time left       =     -1s



           Memory information
           ------------------

    heap     =    6553598 doubles =     50.0 Mbytes
    stack    =   80740347 doubles =    616.0 Mbytes
    global   =  161480704 doubles =   1232.0 Mbytes (distinct from heap & stack)
    total    =  248774649 doubles =   1898.0 Mbytes
    verify   = yes
    hardfail = no 


           Directory information
           ---------------------
 
  0 permanent = /lustre/atlas/scratch/hjjvd/csc242/.3598750
  0 scratch   = /lustre/atlas/scratch/hjjvd/csc242/.3598750
 
 
 
 
                                NWChem Input Module
                                -------------------
 
 
                                E and Grad of 1UBQ
                                ------------------

 Scaling coordinates for geometry "geometry" by  1.889725989
 (inverse scale =  0.529177249)

 C1  symmetry detected
 
 
                             Geometry "geometry" -> ""
                             -------------------------
 
 Output coordinates in angstroms (scale by  1.889725989 to convert to a.u.)
 
  No.       Tag          Charge          X              Y              Z
 ---- ---------------- ---------- -------------- -------------- --------------
    1 N                    7.0000     2.32906152     4.50497561    -1.74104900
    2 C                    6.0000     2.62746889     4.39747324    -0.31708893
    3 C                    6.0000     1.58316452     3.88229451     0.65826088
    4 O                    8.0000     1.96536223     3.17203504     1.63153031
    5 C                    6.0000     3.17093495     5.77310393     0.17051833
    6 C                    6.0000     4.61984434     5.98216592    -0.22109840
    7 O                    8.0000     5.17470143     7.06570304     0.06565919
    8 O                    8.0000     5.24172042     5.10923915    -0.84227389
    9 N                    7.0000     0.34751118     4.30287770     0.51273907
   10 C                    6.0000    -0.76651384     3.94357402     1.40931708
   11 C                    6.0000    -1.42962453     2.63454319     1.13913479
   12 O                    8.0000    -2.25461301     2.15397265     1.94921872
   13 N                    7.0000    -1.11857252     1.96615596     0.03444200
   14 C                    6.0000    -1.67514052     0.63072531    -0.26339357
   15 C                    6.0000    -0.80180935    -0.40750593     0.42477687
   16 O                    8.0000     0.35946097    -0.12200259     0.78880720
   17 C                    6.0000    -1.69557624     0.34016866    -1.76580603
   18 C                    6.0000    -2.45516489     1.39076317    -2.60100976
   19 C                    6.0000    -3.96055504     1.17262312    -2.27426608
   20 N                    7.0000    -4.36917204     2.37842516    -1.58917952
   21 C                    6.0000    -4.96902685     2.65972446    -0.47410020
   22 N                    7.0000    -5.40925757     1.78228945     0.40777548
   23 N                    7.0000    -5.10570620     3.97134461    -0.14396636
   24 N                    7.0000    -1.29538921    -1.61649224     0.52247552
   25 C                    6.0000    -0.56570687    -2.76611350     1.10378494
   26 C                    6.0000    -0.11142581    -3.65076119    -0.08128729
   27 O                    8.0000    -0.58915638    -3.48311333    -1.19864386
   28 C                    6.0000    -1.47918793    -3.59968258     2.05247294
   29 O                    8.0000    -2.57683571    -4.02927961     1.13594267
   30 C                    6.0000    -2.07456032    -2.87604938     3.24367474
   31 N                    7.0000     0.81388643    -4.54470352     0.20027685
   32 C                    6.0000     1.31248684    -5.50593605    -0.79835355
   33 C                    6.0000     0.14051370    -6.37085985    -1.25458680
   34 O                    8.0000     0.03870186    -6.62648525    -2.42370100
   35 C                    6.0000     2.45042237    -6.32411125    -0.15201459
   36 C                    6.0000     3.69261129    -5.59040550     0.35231822
   37 C                    6.0000     4.70766680    -6.58422804     0.94040330
   38 C                    6.0000     4.42413898    -4.91980436    -0.80833304
   39 H                    1.0000     2.58480150     5.43884488    -2.22572028
   40 H                    1.0000     3.37933543     3.54155260    -0.28833884
   41 H                    1.0000     2.54086211     6.60242560    -0.29281178
   42 H                    1.0000     3.10728899     5.79370085     1.30869185
   43 H                    1.0000     4.63044578     7.82303659     0.57710194
   44 H                    1.0000     0.13215710     4.95838079    -0.32175738
   45 H                    1.0000    -0.36130414     3.91589997     2.47409933
   46 H                    1.0000    -1.56787139     4.73520305     1.23444982
   47 H                    1.0000    -0.43275172     2.41605737    -0.67278395
   48 H                    1.0000    -2.75019383     0.59403206     0.11267823
   49 H                    1.0000    -0.61844170     0.29870313    -2.13699168
   50 H                    1.0000    -2.24657428    -0.64792209    -1.90153682
   51 H                    1.0000    -2.13236094     2.44339667    -2.30635858
   52 H                    1.0000    -2.24324701     1.27875011    -3.71576259
   53 H                    1.0000    -4.56233961     1.03107077    -3.23168567
   54 H                    1.0000    -4.13226686     0.23968514    -1.64266829
   55 H                    1.0000    -4.10975280     3.27006952    -2.14607627
   56 H                    1.0000    -5.28087180     0.72266712     0.22726890
   57 H                    1.0000    -5.89890886     2.12206391     1.31143854
   58 H                    1.0000    -4.71938051     4.73840703    -0.80284397
   59 H                    1.0000    -2.30014202    -1.78622743     0.15528244
   60 H                    1.0000     0.31698638    -2.39451640     1.72256942
   61 H                    1.0000    -0.86489037    -4.42176299     2.54748436
   62 H                    1.0000    -3.54691947    -3.89542208     1.63656496
   63 H                    1.0000    -3.19425144    -3.08211919     3.29344446
   64 H                    1.0000    -1.57788383    -3.24634598     4.20012593
   65 H                    1.0000    -1.89944599    -1.75508254     3.13355521
   66 H                    1.0000     1.22300061    -4.57417275     1.20254884
   67 H                    1.0000     1.73959766    -4.99148459    -1.72178413
   68 H                    1.0000     2.00208582    -6.87456009     0.73962515
   69 H                    1.0000     2.84186606    -6.97212753    -1.00439170
   70 H                    1.0000     3.33405558    -4.83613543     1.12860648
   71 H                    1.0000     4.58444703    -7.59838715     0.43407813
   72 H                    1.0000     5.76562815    -6.19704927     0.76348413
   73 H                    1.0000     4.52554617    -6.69481701     2.06102641
   74 H                    1.0000     4.08863545    -5.38948867    -1.79186445
   75 H                    1.0000     4.18170513    -3.80563401    -0.81677499
   76 H                    1.0000     5.54843388    -5.06355819    -0.68258005
   77 H                    1.0000     1.32610230     4.36202290    -1.85742047
   78 H                    1.0000    -5.55568790     4.22360296     0.69405940
   79 H                    1.0000    -0.54852316    -6.72763283    -0.57488815
 
      Atomic Mass 
      ----------- 
 
      N                 14.003070
      C                 12.000000
      O                 15.994910
      H                  1.007825
 

 Effective nuclear repulsion energy (a.u.)    4475.2626654164

            Nuclear Dipole moment (a.u.) 
            ----------------------------
        X                 Y               Z
 ---------------- ---------------- ----------------
     0.0000000000    -0.0000000000     0.0000000000
 
 
            XYZ format geometry
            -------------------
    79
 geometry
 N                     2.32906152     4.50497561    -1.74104900
 C                     2.62746889     4.39747324    -0.31708893
 C                     1.58316452     3.88229451     0.65826088
 O                     1.96536223     3.17203504     1.63153031
 C                     3.17093495     5.77310393     0.17051833
 C                     4.61984434     5.98216592    -0.22109840
 O                     5.17470143     7.06570304     0.06565919
 O                     5.24172042     5.10923915    -0.84227389
 N                     0.34751118     4.30287770     0.51273907
 C                    -0.76651384     3.94357402     1.40931708
 C                    -1.42962453     2.63454319     1.13913479
 O                    -2.25461301     2.15397265     1.94921872
 N                    -1.11857252     1.96615596     0.03444200
 C                    -1.67514052     0.63072531    -0.26339357
 C                    -0.80180935    -0.40750593     0.42477687
 O                     0.35946097    -0.12200259     0.78880720
 C                    -1.69557624     0.34016866    -1.76580603
 C                    -2.45516489     1.39076317    -2.60100976
 C                    -3.96055504     1.17262312    -2.27426608
 N                    -4.36917204     2.37842516    -1.58917952
 C                    -4.96902685     2.65972446    -0.47410020
 N                    -5.40925757     1.78228945     0.40777548
 N                    -5.10570620     3.97134461    -0.14396636
 N                    -1.29538921    -1.61649224     0.52247552
 C                    -0.56570687    -2.76611350     1.10378494
 C                    -0.11142581    -3.65076119    -0.08128729
 O                    -0.58915638    -3.48311333    -1.19864386
 C                    -1.47918793    -3.59968258     2.05247294
 O                    -2.57683571    -4.02927961     1.13594267
 C                    -2.07456032    -2.87604938     3.24367474
 N                     0.81388643    -4.54470352     0.20027685
 C                     1.31248684    -5.50593605    -0.79835355
 C                     0.14051370    -6.37085985    -1.25458680
 O                     0.03870186    -6.62648525    -2.42370100
 C                     2.45042237    -6.32411125    -0.15201459
 C                     3.69261129    -5.59040550     0.35231822
 C                     4.70766680    -6.58422804     0.94040330
 C                     4.42413898    -4.91980436    -0.80833304
 H                     2.58480150     5.43884488    -2.22572028
 H                     3.37933543     3.54155260    -0.28833884
 H                     2.54086211     6.60242560    -0.29281178
 H                     3.10728899     5.79370085     1.30869185
 H                     4.63044578     7.82303659     0.57710194
 H                     0.13215710     4.95838079    -0.32175738
 H                    -0.36130414     3.91589997     2.47409933
 H                    -1.56787139     4.73520305     1.23444982
 H                    -0.43275172     2.41605737    -0.67278395
 H                    -2.75019383     0.59403206     0.11267823
 H                    -0.61844170     0.29870313    -2.13699168
 H                    -2.24657428    -0.64792209    -1.90153682
 H                    -2.13236094     2.44339667    -2.30635858
 H                    -2.24324701     1.27875011    -3.71576259
 H                    -4.56233961     1.03107077    -3.23168567
 H                    -4.13226686     0.23968514    -1.64266829
 H                    -4.10975280     3.27006952    -2.14607627
 H                    -5.28087180     0.72266712     0.22726890
 H                    -5.89890886     2.12206391     1.31143854
 H                    -4.71938051     4.73840703    -0.80284397
 H                    -2.30014202    -1.78622743     0.15528244
 H                     0.31698638    -2.39451640     1.72256942
 H                    -0.86489037    -4.42176299     2.54748436
 H                    -3.54691947    -3.89542208     1.63656496
 H                    -3.19425144    -3.08211919     3.29344446
 H                    -1.57788383    -3.24634598     4.20012593
 H                    -1.89944599    -1.75508254     3.13355521
 H                     1.22300061    -4.57417275     1.20254884
 H                     1.73959766    -4.99148459    -1.72178413
 H                     2.00208582    -6.87456009     0.73962515
 H                     2.84186606    -6.97212753    -1.00439170
 H                     3.33405558    -4.83613543     1.12860648
 H                     4.58444703    -7.59838715     0.43407813
 H                     5.76562815    -6.19704927     0.76348413
 H                     4.52554617    -6.69481701     2.06102641
 H                     4.08863545    -5.38948867    -1.79186445
 H                     4.18170513    -3.80563401    -0.81677499
 H                     5.54843388    -5.06355819    -0.68258005
 H                     1.32610230     4.36202290    -1.85742047
 H                    -5.55568790     4.22360296     0.69405940
 H                    -0.54852316    -6.72763283    -0.57488815
 
 ==============================================================================
                                internuclear distances
 ------------------------------------------------------------------------------
       center one      |      center two      | atomic units |  angstroms
 ------------------------------------------------------------------------------
    2 C                |   1 N                |     2.75684  |     1.45886
    3 C                |   2 C                |     2.87045  |     1.51898
    4 O                |   3 C                |     2.38869  |     1.26404
    5 C                |   2 C                |     2.94305  |     1.55739
    6 C                |   5 C                |     2.86367  |     1.51539
    7 O                |   6 C                |     2.36340  |     1.25066
    8 O                |   6 C                |     2.34097  |     1.23879
    9 N                |   3 C                |     2.48188  |     1.31336
   10 C                |   9 N                |     2.78631  |     1.47445
   11 C                |  10 C                |     2.81961  |     1.49207
   12 O                |  11 C                |     2.36615  |     1.25211
   13 N                |  11 C                |     2.50974  |     1.32810
   14 C                |  13 N                |     2.79133  |     1.47711
   15 C                |  14 C                |     2.87475  |     1.52125
   16 O                |  15 C                |     2.36222  |     1.25003
   17 C                |  14 C                |     2.89201  |     1.53039
   18 C                |  17 C                |     2.91428  |     1.54217
   19 C                |  18 C                |     2.94006  |     1.55581
   20 N                |  19 C                |     2.73212  |     1.44578
   21 C                |  20 N                |     2.45108  |     1.29706
   22 N                |  21 C                |     2.49372  |     1.31962
   23 N                |  21 C                |     2.56893  |     1.35942
   24 N                |  15 C                |     2.47461  |     1.30951
   25 C                |  24 N                |     2.79781  |     1.48054
   26 C                |  25 C                |     2.92350  |     1.54705
   27 O                |  26 C                |     2.31815  |     1.22671
   28 C                |  25 C                |     2.94536  |     1.55862
   29 O                |  28 C                |     2.82159  |     1.49312
   30 C                |  28 C                |     2.86409  |     1.51561
   31 N                |  26 C                |     2.48886  |     1.31705
   32 C                |  31 N                |     2.78363  |     1.47304
   33 C                |  32 C                |     2.88439  |     1.52636
   34 O                |  33 C                |     2.26967  |     1.20106
   35 C                |  32 C                |     2.91659  |     1.54339
   36 C                |  35 C                |     2.88807  |     1.52830
   37 C                |  36 C                |     2.90543  |     1.53749
   38 C                |  36 C                |     2.88575  |     1.52707
   39 H                |   1 N                |     2.04616  |     1.08278
   40 H                |   2 C                |     2.15357  |     1.13962
   41 H                |   5 C                |     2.15416  |     1.13993
   42 H                |   5 C                |     2.15455  |     1.14014
   43 H                |   7 O                |     2.01000  |     1.06365
   44 H                |   9 N                |     2.04619  |     1.08280
   45 H                |  10 C                |     2.15356  |     1.13961
   46 H                |  10 C                |     2.15415  |     1.13992
   47 H                |  13 N                |     2.04661  |     1.08302
   48 H                |  14 C                |     2.15339  |     1.13952
   49 H                |  17 C                |     2.15438  |     1.14005
   50 H                |  17 C                |     2.15325  |     1.13945
   51 H                |  18 C                |     2.15384  |     1.13976
   52 H                |  18 C                |     2.15473  |     1.14023
   53 H                |  19 C                |     2.15365  |     1.13966
   54 H                |  19 C                |     2.15360  |     1.13964
   55 H                |  20 N                |     2.04620  |     1.08280
   56 H                |  22 N                |     2.04568  |     1.08253
   57 H                |  22 N                |     2.04563  |     1.08250
   58 H                |  23 N                |     2.04558  |     1.08247
   59 H                |  24 N                |     2.04682  |     1.08313
   60 H                |  25 C                |     2.15472  |     1.14023
   61 H                |  28 C                |     2.15314  |     1.13939
   63 H                |  30 C                |     2.15350  |     1.13958
   64 H                |  30 C                |     2.15346  |     1.13956
   65 H                |  30 C                |     2.15409  |     1.13989
   66 H                |  31 N                |     2.04649  |     1.08296
   67 H                |  32 C                |     2.15446  |     1.14009
   68 H                |  35 C                |     2.15381  |     1.13975
   69 H                |  35 C                |     2.15437  |     1.14004
   70 H                |  36 C                |     2.15471  |     1.14022
   71 H                |  37 C                |     2.15467  |     1.14020
   72 H                |  37 C                |     2.15503  |     1.14039
   73 H                |  37 C                |     2.15561  |     1.14070
   74 H                |  38 C                |     2.15503  |     1.14039
   75 H                |  38 C                |     2.15480  |     1.14027
   76 H                |  38 C                |     2.15505  |     1.14040
   77 H                |   1 N                |     1.92706  |     1.01976
   78 H                |  23 N                |     1.85963  |     0.98408
   79 H                |  33 C                |     1.94930  |     1.03153
 ------------------------------------------------------------------------------
                         number of included internuclear distances:         77
 ==============================================================================



 ==============================================================================
                                 internuclear angles
 ------------------------------------------------------------------------------
        center 1       |       center 2       |       center 3       |  degrees
 ------------------------------------------------------------------------------
    2 C                |   1 N                |  39 H                |   116.88
    2 C                |   1 N                |  77 H                |   107.59
   39 H                |   1 N                |  77 H                |   107.58
    1 N                |   2 C                |   3 C                |   120.74
    1 N                |   2 C                |   5 C                |   108.17
    1 N                |   2 C                |  40 H                |   102.41
    3 C                |   2 C                |   5 C                |   109.78
    3 C                |   2 C                |  40 H                |   100.52
    5 C                |   2 C                |  40 H                |   115.17
    2 C                |   3 C                |   4 O                |   118.50
    2 C                |   3 C                |   9 N                |   117.84
    4 O                |   3 C                |   9 N                |   123.35
    2 C                |   5 C                |   6 C                |   112.00
    2 C                |   5 C                |  41 H                |   108.81
    2 C                |   5 C                |  42 H                |   108.00
    6 C                |   5 C                |  41 H                |   108.85
    6 C                |   5 C                |  42 H                |   107.99
   41 H                |   5 C                |  42 H                |   111.21
    5 C                |   6 C                |   7 O                |   118.98
    5 C                |   6 C                |   8 O                |   120.82
    7 O                |   6 C                |   8 O                |   120.18
    6 C                |   7 O                |  43 H                |   120.01
    3 C                |   9 N                |  10 C                |   124.43
    3 C                |   9 N                |  44 H                |   117.80
   10 C                |   9 N                |  44 H                |   117.77
    9 N                |  10 C                |  11 C                |   116.07
    9 N                |  10 C                |  45 H                |   107.78
    9 N                |  10 C                |  46 H                |   105.58
   11 C                |  10 C                |  45 H                |   107.81
   11 C                |  10 C                |  46 H                |   105.61
   45 H                |  10 C                |  46 H                |   114.21
   10 C                |  11 C                |  12 O                |   120.82
   10 C                |  11 C                |  13 N                |   119.21
   12 O                |  11 C                |  13 N                |   119.95
   11 C                |  13 N                |  14 C                |   122.31
   11 C                |  13 N                |  47 H                |   118.84
   14 C                |  13 N                |  47 H                |   118.85
   13 N                |  14 C                |  15 C                |   108.03
   13 N                |  14 C                |  17 C                |   112.00
   13 N                |  14 C                |  48 H                |   108.54
   15 C                |  14 C                |  17 C                |   108.80
   15 C                |  14 C                |  48 H                |   111.74
   17 C                |  14 C                |  48 H                |   107.78
   14 C                |  15 C                |  16 O                |   120.61
   14 C                |  15 C                |  24 N                |   116.58
   16 O                |  15 C                |  24 N                |   122.64
   14 C                |  17 C                |  18 C                |   114.14
   14 C                |  17 C                |  49 H                |   108.30
   14 C                |  17 C                |  50 H                |   106.74
   18 C                |  17 C                |  49 H                |   108.29
   18 C                |  17 C                |  50 H                |   106.74
   49 H                |  17 C                |  50 H                |   112.74
   17 C                |  18 C                |  19 C                |   105.51
   17 C                |  18 C                |  51 H                |   110.47
   17 C                |  18 C                |  52 H                |   111.78
   19 C                |  18 C                |  51 H                |   110.44
   19 C                |  18 C                |  52 H                |   111.80
   51 H                |  18 C                |  52 H                |   106.91
   18 C                |  19 C                |  20 N                |   104.84
   18 C                |  19 C                |  53 H                |   110.60
   18 C                |  19 C                |  54 H                |   112.15
   20 N                |  19 C                |  53 H                |   110.64
   20 N                |  19 C                |  54 H                |   112.18
   53 H                |  19 C                |  54 H                |   106.52
   19 C                |  20 N                |  21 C                |   135.97
   19 C                |  20 N                |  55 H                |   112.05
   21 C                |  20 N                |  55 H                |   111.99
   20 N                |  21 C                |  22 N                |   125.77
   20 N                |  21 C                |  23 N                |   117.68
   22 N                |  21 C                |  23 N                |   116.47
   21 C                |  22 N                |  56 H                |   119.99
   21 C                |  22 N                |  57 H                |   120.00
   56 H                |  22 N                |  57 H                |   120.01
   21 C                |  23 N                |  58 H                |   120.00
   21 C                |  23 N                |  78 H                |   120.01
   58 H                |  23 N                |  78 H                |   119.99
   15 C                |  24 N                |  25 C                |   124.08
   15 C                |  24 N                |  59 H                |   117.97
   25 C                |  24 N                |  59 H                |   117.94
   24 N                |  25 C                |  26 C                |   106.74
   24 N                |  25 C                |  28 C                |   111.43
   24 N                |  25 C                |  60 H                |   109.97
   26 C                |  25 C                |  28 C                |   109.42
   26 C                |  25 C                |  60 H                |   112.01
   28 C                |  25 C                |  60 H                |   107.32
   25 C                |  26 C                |  27 O                |   120.35
   25 C                |  26 C                |  31 N                |   115.51
   27 O                |  26 C                |  31 N                |   124.13
   25 C                |  28 C                |  29 O                |   102.19
   25 C                |  28 C                |  30 C                |   116.95
   25 C                |  28 C                |  61 H                |   109.53
   29 O                |  28 C                |  30 C                |   109.33
   29 O                |  28 C                |  61 H                |   117.09
   30 C                |  28 C                |  61 H                |   102.40
   28 C                |  30 C                |  63 H                |   109.51
   28 C                |  30 C                |  64 H                |   109.47
   28 C                |  30 C                |  65 H                |   109.47
   63 H                |  30 C                |  64 H                |   109.44
   63 H                |  30 C                |  65 H                |   109.45
   64 H                |  30 C                |  65 H                |   109.49
   26 C                |  31 N                |  32 C                |   122.40
   26 C                |  31 N                |  66 H                |   118.80
   32 C                |  31 N                |  66 H                |   118.80
   31 N                |  32 C                |  33 C                |   108.21
   31 N                |  32 C                |  35 C                |   108.15
   31 N                |  32 C                |  67 H                |   112.42
   33 C                |  32 C                |  35 C                |   113.01
   33 C                |  32 C                |  67 H                |   107.53
   35 C                |  32 C                |  67 H                |   107.59
   32 C                |  33 C                |  34 O                |   118.47
   32 C                |  33 C                |  79 H                |   120.79
   34 O                |  33 C                |  79 H                |   120.74
   32 C                |  35 C                |  36 C                |   118.88
   32 C                |  35 C                |  68 H                |   107.07
   32 C                |  35 C                |  69 H                |   103.97
   36 C                |  35 C                |  68 H                |   107.06
   36 C                |  35 C                |  69 H                |   103.92
   68 H                |  35 C                |  69 H                |   116.45
   35 C                |  36 C                |  37 C                |   110.64
   35 C                |  36 C                |  38 C                |   110.45
   35 C                |  36 C                |  70 H                |   106.66
   37 C                |  36 C                |  38 C                |   104.97
   37 C                |  36 C                |  70 H                |   112.01
   38 C                |  36 C                |  70 H                |   112.19
   36 C                |  37 C                |  71 H                |   109.50
   36 C                |  37 C                |  72 H                |   109.49
   36 C                |  37 C                |  73 H                |   109.45
   71 H                |  37 C                |  72 H                |   109.47
   71 H                |  37 C                |  73 H                |   109.44
   72 H                |  37 C                |  73 H                |   109.48
   36 C                |  38 C                |  74 H                |   109.49
   36 C                |  38 C                |  75 H                |   109.44
   36 C                |  38 C                |  76 H                |   109.46
   74 H                |  38 C                |  75 H                |   109.48
   74 H                |  38 C                |  76 H                |   109.46
   75 H                |  38 C                |  76 H                |   109.49
 ------------------------------------------------------------------------------
                            number of included internuclear angles:        136
 ==============================================================================



  library name resolved from: environment
  library file name is: <
 /sw/xk6/nwchem/6.6/sles11.3_pgi15.7.0/src/basis/libraries/>
  


 Summary of "631g" -> "" (spherical)
 ------------------------------------------------------------------------------
       Tag                 Description            Shells   Functions and Types
 ---------------- ------------------------------  ------  ---------------------
 *                           6-31g                    on all atoms 


  library name resolved from: environment
  library file name is: <
 /sw/xk6/nwchem/6.6/sles11.3_pgi15.7.0/src/basis/libraries/>
  


 Summary of "631gp" -> "" (spherical)
 ------------------------------------------------------------------------------
       Tag                 Description            Shells   Functions and Types
 ---------------- ------------------------------  ------  ---------------------
 *                           6-31g*                   on all atoms 


  library name resolved from: environment
  library file name is: <
 /sw/xk6/nwchem/6.6/sles11.3_pgi15.7.0/src/basis/libraries/>
  


 Summary of "pvtz" -> "" (spherical)
 ------------------------------------------------------------------------------
       Tag                 Description            Shells   Functions and Types
 ---------------- ------------------------------  ------  ---------------------
 *                          cc-pVTZ                   on all atoms 


  library name resolved from: environment
  library file name is: <
 /sw/xk6/nwchem/6.6/sles11.3_pgi15.7.0/src/basis/libraries/>
  


 Summary of "apvtz" -> "" (spherical)
 ------------------------------------------------------------------------------
       Tag                 Description            Shells   Functions and Types
 ---------------- ------------------------------  ------  ---------------------
 *                        aug-cc-pVTZ                 on all atoms 


                      Basis "ao basis" -> "631g" (spherical)
                      -----
  N (Nitrogen)
  ------------
            Exponent  Coefficients 
       -------------- ---------------------------------------------------------
  1 S  4.17351100E+03  0.001835
  1 S  6.27457900E+02  0.013995
  1 S  1.42902100E+02  0.068587
  1 S  4.02343300E+01  0.232241
  1 S  1.28202100E+01  0.469070
  1 S  4.39043700E+00  0.360455
 
  2 S  1.16263580E+01 -0.114961
  2 S  2.71628000E+00 -0.169118
  2 S  7.72218000E-01  1.145852
 
  3 P  1.16263580E+01  0.067580
  3 P  2.71628000E+00  0.323907
  3 P  7.72218000E-01  0.740895
 
  4 S  2.12031300E-01  1.000000
 
  5 P  2.12031300E-01  1.000000
 
  C (Carbon)
  ----------
            Exponent  Coefficients 
       -------------- ---------------------------------------------------------
  1 S  3.04752490E+03  0.001835
  1 S  4.57369510E+02  0.014037
  1 S  1.03948690E+02  0.068843
  1 S  2.92101550E+01  0.232184
  1 S  9.28666300E+00  0.467941
  1 S  3.16392700E+00  0.362312
 
  2 S  7.86827240E+00 -0.119332
  2 S  1.88128850E+00 -0.160854
  2 S  5.44249300E-01  1.143456
 
  3 P  7.86827240E+00  0.068999
  3 P  1.88128850E+00  0.316424
  3 P  5.44249300E-01  0.744308
 
  4 S  1.68714400E-01  1.000000
 
  5 P  1.68714400E-01  1.000000
 
  O (Oxygen)
  ----------
            Exponent  Coefficients 
       -------------- ---------------------------------------------------------
  1 S  5.48467170E+03  0.001831
  1 S  8.25234950E+02  0.013950
  1 S  1.88046960E+02  0.068445
  1 S  5.29645000E+01  0.232714
  1 S  1.68975700E+01  0.470193
  1 S  5.79963530E+00  0.358521
 
  2 S  1.55396160E+01 -0.110778
  2 S  3.59993360E+00 -0.148026
  2 S  1.01376180E+00  1.130767
 
  3 P  1.55396160E+01  0.070874
  3 P  3.59993360E+00  0.339753
  3 P  1.01376180E+00  0.727159
 
  4 S  2.70005800E-01  1.000000
 
  5 P  2.70005800E-01  1.000000
 
  H (Hydrogen)
  ------------
            Exponent  Coefficients 
       -------------- ---------------------------------------------------------
  1 S  1.87311370E+01  0.033495
  1 S  2.82539370E+00  0.234727
  1 S  6.40121700E-01  0.813757
 
  2 S  1.61277800E-01  1.000000
 


 Summary of "ao basis" -> "631g" (spherical)
 ------------------------------------------------------------------------------
       Tag                 Description            Shells   Functions and Types
 ---------------- ------------------------------  ------  ---------------------
 N                           6-31g                   5        9   3s2p
 C                           6-31g                   5        9   3s2p
 O                           6-31g                   5        9   3s2p
 H                           6-31g                   2        2   2s


                                 NWChem SCF Module
                                 -----------------
 
 
                                E and Grad of 1UBQ
 
 

  ao basis        = "631g"
  functions       =   424
  atoms           =    79
  closed shells   =   146
  open shells     =     0
  charge          =   1.00
  wavefunction    = RHF 
  input vectors   = atomic
  output vectors  = /lustre/atlas/scratch/hjjvd/csc242/.3598750/nwc_gbe_dat.movecs
  use symmetry    = F
  symmetry adapt  = F


 Summary of "ao basis" -> "631g" (spherical)
 ------------------------------------------------------------------------------
       Tag                 Description            Shells   Functions and Types
 ---------------- ------------------------------  ------  ---------------------
 N                           6-31g                   5        9   3s2p
 C                           6-31g                   5        9   3s2p
 O                           6-31g                   5        9   3s2p
 H                           6-31g                   2        2   2s



 Forming initial guess at       2.5s

 
      Superposition of Atomic Density Guess
      -------------------------------------
 
 Sum of atomic energies:       -1881.33784919

 Renormalizing density from     293.00 to    292
 
      Non-variational initial energy
      ------------------------------

 Total energy =   -1899.384596
 1-e energy   =  -11438.338030
 2-e energy   =    5063.690769
 HOMO         =      -0.371518
 LUMO         =      -0.126204
 

 Starting SCF solution at       4.6s



 ----------------------------------------------
         Quadratically convergent ROHF

 Convergence threshold     :          1.000E-06
 Maximum no. of iterations :          300
 Final Fock-matrix accuracy:          1.000E-10
 ----------------------------------------------


              iter       energy          gnorm     gmax       time
             ----- ------------------- --------- --------- --------
                 1    -1889.2772184301  3.73D+00  3.58D-01      5.3
                 2    -1890.1026400127  1.16D+00  8.31D-02      9.2
                 3    -1890.2344618894  1.03D-01  1.01D-02     15.7
                 4    -1890.2364151922  7.49D-03  1.12D-03     23.7
                 5    -1890.2364254885  5.61D-05  6.12D-06     34.4
                 6    -1890.2364254890  5.71D-08  1.51D-08     51.4


       Final RHF  results 
       ------------------ 

         Total SCF energy =  -1890.236425488963
      One-electron energy = -11467.535470009763
      Two-electron energy =   5102.036379104396
 Nuclear repulsion energy =   4475.262665416405

        Time for solution =     48.0s


             Final eigenvalues
             -----------------

              1      
    1  -20.7039
    2  -20.6654
    3  -20.6290
    4  -20.6196
    5  -20.6168
    6  -20.6076
    7  -20.6035
    8  -20.5956
    9  -15.7987
   10  -15.7945
   11  -15.7828
   12  -15.7223
   13  -15.7109
   14  -15.6886
   15  -15.6732
   16  -15.6486
   17  -11.6030
   18  -11.4754
   19  -11.4726
   20  -11.4599
   21  -11.4531
   22  -11.4513
   23  -11.4369
   24  -11.4134
   25  -11.4112
   26  -11.4028
   27  -11.3881
   28  -11.3869
   29  -11.3847
   30  -11.3724
   31  -11.3675
   32  -11.3610
   33  -11.3522
   34  -11.3342
   35  -11.3106
   36  -11.3013
   37  -11.2850
   38  -11.2802
   39   -1.5748
   40   -1.5477
   41   -1.4968
   42   -1.4765
   43   -1.4729
   44   -1.4695
   45   -1.4630
   46   -1.4214
   47   -1.4187
   48   -1.4083
   49   -1.3678
   50   -1.3558
   51   -1.3368
   52   -1.3220
   53   -1.3162
   54   -1.2863
   55   -1.2265
   56   -1.1706
   57   -1.1623
   58   -1.1392
   59   -1.1273
   60   -1.1106
   61   -1.0915
   62   -1.0683
   63   -1.0394
   64   -1.0067
   65   -0.9998
   66   -0.9679
   67   -0.9643
   68   -0.9585
   69   -0.9375
   70   -0.9274
   71   -0.9224
   72   -0.9151
   73   -0.9017
   74   -0.8934
   75   -0.8823
   76   -0.8644
   77   -0.8556
   78   -0.8525
   79   -0.8391
   80   -0.8335
   81   -0.8209
   82   -0.8202
   83   -0.8137
   84   -0.8041
   85   -0.7925
   86   -0.7862
   87   -0.7840
   88   -0.7711
   89   -0.7542
   90   -0.7488
   91   -0.7462
   92   -0.7395
   93   -0.7332
   94   -0.7285
   95   -0.7187
   96   -0.7166
   97   -0.7136
   98   -0.7096
   99   -0.7082
  100   -0.7035
  101   -0.6970
  102   -0.6850
  103   -0.6807
  104   -0.6768
  105   -0.6755
  106   -0.6687
  107   -0.6601
  108   -0.6551
  109   -0.6546
  110   -0.6500
  111   -0.6476
  112   -0.6404
  113   -0.6345
  114   -0.6269
  115   -0.6255
  116   -0.6215
  117   -0.6133
  118   -0.6121
  119   -0.6072
  120   -0.6057
  121   -0.6025
  122   -0.5898
  123   -0.5877
  124   -0.5851
  125   -0.5796
  126   -0.5791
  127   -0.5715
  128   -0.5689
  129   -0.5601
  130   -0.5367
  131   -0.5349
  132   -0.5347
  133   -0.5298
  134   -0.5132
  135   -0.5129
  136   -0.5086
  137   -0.5021
  138   -0.5011
  139   -0.4960
  140   -0.4946
  141   -0.4860
  142   -0.4857
  143   -0.4834
  144   -0.4661
  145   -0.4658
  146   -0.4465
  147   -0.0063
  148    0.0195
  149    0.0201
  150    0.0530
  151    0.0614
  152    0.0695
  153    0.0752
  154    0.0828
  155    0.0902
  156    0.0906
 
                       ROHF Final Molecular Orbital Analysis
                       -------------------------------------
 
 Vector   41  Occ=2.000000D+00  E=-1.496770D+00
              MO Center= -1.6D+00,  2.2D+00,  1.3D+00, r^2= 2.1D+00
   Bfn.  Coefficient  Atom+Function         Bfn.  Coefficient  Atom+Function  
  ----- ------------  ---------------      ----- ------------  ---------------
   105      0.373858  12 O  s               101      0.338859  12 O  s         
    92      0.256458  11 C  s               100     -0.157531  12 O  s         
   110      0.151895  13 N  s               114      0.152041  13 N  s         
 
 Vector   42  Occ=2.000000D+00  E=-1.476531D+00
              MO Center= -2.4D-01, -3.0D+00, -4.1D-01, r^2= 7.6D+00
   Bfn.  Coefficient  Atom+Function         Bfn.  Coefficient  Atom+Function  
  ----- ------------  ---------------      ----- ------------  ---------------
   240      0.293590  27 O  s               236      0.263359  27 O  s         
   227      0.197458  26 C  s               141      0.185095  16 O  s         
   137      0.167746  16 O  s               299      0.164505  34 O  s         
   303      0.162481  34 O  s         
 
 Vector   43  Occ=2.000000D+00  E=-1.472926D+00
              MO Center=  1.3D+00,  3.1D+00,  9.9D-01, r^2= 6.3D+00
   Bfn.  Coefficient  Atom+Function         Bfn.  Coefficient  Atom+Function  
  ----- ------------  ---------------      ----- ------------  ---------------
    33      0.362111   4 O  s                29      0.327127   4 O  s         
    20      0.258474   3 C  s                74      0.175006   9 N  s         
    78      0.173658   9 N  s                28     -0.151447   4 O  s         
 
 Vector   44  Occ=2.000000D+00  E=-1.469478D+00
              MO Center= -5.1D-02, -4.4D+00, -1.2D+00, r^2= 1.2D+01
   Bfn.  Coefficient  Atom+Function         Bfn.  Coefficient  Atom+Function  
  ----- ------------  ---------------      ----- ------------  ---------------
   303      0.355046  34 O  s               299      0.352381  34 O  s         
   141     -0.203714  16 O  s               290      0.194873  33 C  s         
   137     -0.182665  16 O  s               298     -0.160107  34 O  s         
 
 Vector   45  Occ=2.000000D+00  E=-1.463013D+00
              MO Center= -2.4D-01, -2.5D+00, -2.9D-01, r^2= 7.3D+00
   Bfn.  Coefficient  Atom+Function         Bfn.  Coefficient  Atom+Function  
  ----- ------------  ---------------      ----- ------------  ---------------
   240     -0.276650  27 O  s               141      0.272224  16 O  s         
   236     -0.248473  27 O  s               137      0.241352  16 O  s         
   128      0.175432  15 C  s               227     -0.172255  26 C  s         
   303      0.166648  34 O  s               299      0.162095  34 O  s         
 
 Vector   46  Occ=2.000000D+00  E=-1.421392D+00
              MO Center=  5.0D+00,  5.6D+00, -5.3D-01, r^2= 1.1D+00
   Bfn.  Coefficient  Atom+Function         Bfn.  Coefficient  Atom+Function  
  ----- ------------  ---------------      ----- ------------  ---------------
    69      0.437360   8 O  s                65      0.399468   8 O  s         
    60     -0.268765   7 O  s                56     -0.201571   7 O  s         
    49     -0.200057   6 C  py               64     -0.183716   8 O  s         
 
 Vector   47  Occ=2.000000D+00  E=-1.418681D+00
              MO Center= -2.4D+00, -3.9D+00,  1.3D+00, r^2= 1.2D+00
   Bfn.  Coefficient  Atom+Function         Bfn.  Coefficient  Atom+Function  
  ----- ------------  ---------------      ----- ------------  ---------------
   258      0.493935  29 O  s               254      0.430529  29 O  s         
   253     -0.199309  29 O  s         
 
 Vector   48  Occ=2.000000D+00  E=-1.408340D+00
              MO Center= -4.7D+00,  2.4D+00, -8.5D-01, r^2= 2.4D+00
   Bfn.  Coefficient  Atom+Function         Bfn.  Coefficient  Atom+Function  
  ----- ------------  ---------------      ----- ------------  ---------------
   177      0.377300  20 N  s               173      0.301973  20 N  s         
   195     -0.251161  22 N  s               191     -0.212249  22 N  s         
   204     -0.206115  23 N  s               185     -0.193973  21 C  pz        
   200     -0.162928  23 N  s         
 
 Vector   49  Occ=2.000000D+00  E=-1.367752D+00
              MO Center= -5.2D+00,  2.9D+00, -1.7D-02, r^2= 2.0D+00
   Bfn.  Coefficient  Atom+Function         Bfn.  Coefficient  Atom+Function  
  ----- ------------  ---------------      ----- ------------  ---------------
   204     -0.390794  23 N  s               195      0.368304  22 N  s         
   200     -0.314975  23 N  s               191      0.281060  22 N  s         
   184     -0.221706  21 C  py              199      0.152902  23 N  s         
 
 Vector   50  Occ=2.000000D+00  E=-1.355826D+00
              MO Center=  8.2D-02,  3.3D+00,  7.4D-01, r^2= 3.9D+00
   Bfn.  Coefficient  Atom+Function         Bfn.  Coefficient  Atom+Function  
  ----- ------------  ---------------      ----- ------------  ---------------
    78      0.338654   9 N  s                74      0.260971   9 N  s         
    33     -0.250024   4 O  s               114      0.232047  13 N  s         
    29     -0.217833   4 O  s               105     -0.181381  12 O  s         
   110      0.175447  13 N  s               101     -0.151974  12 O  s         
 
 Vector   51  Occ=2.000000D+00  E=-1.336833D+00
              MO Center= -6.3D-01,  2.5D+00,  3.9D-01, r^2= 4.2D+00
   Bfn.  Coefficient  Atom+Function         Bfn.  Coefficient  Atom+Function  
  ----- ------------  ---------------      ----- ------------  ---------------
   114      0.358862  13 N  s               110      0.284804  13 N  s         
    78     -0.251768   9 N  s                74     -0.188327   9 N  s         
   105     -0.169510  12 O  s                33      0.156766   4 O  s         
   101     -0.152199  12 O  s         
 
 Vector   52  Occ=2.000000D+00  E=-1.321988D+00
              MO Center= -9.4D-01, -1.4D+00,  5.7D-01, r^2= 2.1D+00
   Bfn.  Coefficient  Atom+Function         Bfn.  Coefficient  Atom+Function  
  ----- ------------  ---------------      ----- ------------  ---------------
   213      0.440497  24 N  s               209      0.337916  24 N  s         
   141     -0.256602  16 O  s               137     -0.221988  16 O  s         
   208     -0.167420  24 N  s               129     -0.157722  15 C  px        
 
 Vector   53  Occ=2.000000D+00  E=-1.316163D+00
              MO Center=  5.5D-01, -4.4D+00, -9.1D-02, r^2= 1.7D+00
   Bfn.  Coefficient  Atom+Function         Bfn.  Coefficient  Atom+Function  
  ----- ------------  ---------------      ----- ------------  ---------------
   276      0.451825  31 N  s               272      0.344089  31 N  s         
   240     -0.236356  27 O  s               236     -0.204619  27 O  s         
   271     -0.170897  31 N  s         
 
 Vector   54  Occ=2.000000D+00  E=-1.286318D+00
              MO Center=  2.2D+00,  4.6D+00, -1.1D+00, r^2= 2.0D+00
   Bfn.  Coefficient  Atom+Function         Bfn.  Coefficient  Atom+Function  
  ----- ------------  ---------------      ----- ------------  ---------------
     6      0.392378   1 N  s                 2      0.336308   1 N  s         
    11      0.203757   2 C  s                 1     -0.165740   1 N  s         
 
 Vector   55  Occ=2.000000D+00  E=-1.226464D+00
              MO Center= -2.7D+00,  1.3D+00, -1.6D+00, r^2= 4.4D+00
   Bfn.  Coefficient  Atom+Function         Bfn.  Coefficient  Atom+Function  
  ----- ------------  ---------------      ----- ------------  ---------------
   155      0.217877  18 C  s               146      0.185704  17 C  s         
   159      0.184734  18 C  s               164      0.182093  19 C  s         
   150      0.173178  17 C  s               168      0.154000  19 C  s         
 
 Vector   56  Occ=2.000000D+00  E=-1.170624D+00
              MO Center=  7.3D-01, -3.3D+00,  4.9D-02, r^2= 1.9D+01
   Bfn.  Coefficient  Atom+Function         Bfn.  Coefficient  Atom+Function  
  ----- ------------  ---------------      ----- ------------  ---------------
   317      0.164151  36 C  s               308      0.157839  35 C  s         
 
 Vector   57  Occ=2.000000D+00  E=-1.162276D+00
              MO Center=  6.5D-02, -1.5D+00, -2.4D-01, r^2= 2.6D+01
   Bfn.  Coefficient  Atom+Function         Bfn.  Coefficient  Atom+Function  
  ----- ------------  ---------------      ----- ------------  ---------------
   123      0.161921  14 C  s               317     -0.157783  36 C  s         
 
 Vector   58  Occ=2.000000D+00  E=-1.139223D+00
              MO Center= -7.1D-01, -1.5D+00,  1.2D+00, r^2= 1.7D+01
   Bfn.  Coefficient  Atom+Function         Bfn.  Coefficient  Atom+Function  
  ----- ------------  ---------------      ----- ------------  ---------------
   245      0.184406  28 C  s               249      0.170545  28 C  s         
   258     -0.169520  29 O  s               263      0.160752  30 C  s         
   222      0.157791  25 C  s         
 
 Vector   59  Occ=2.000000D+00  E=-1.127323D+00
              MO Center=  1.6D+00,  4.1D+00, -1.7D-01, r^2= 1.4D+01
   Bfn.  Coefficient  Atom+Function         Bfn.  Coefficient  Atom+Function  
  ----- ------------  ---------------      ----- ------------  ---------------
    42     -0.251523   5 C  s                 6      0.245348   1 N  s         
    38     -0.237420   5 C  s                 2      0.163299   1 N  s         
 
 Vector   60  Occ=2.000000D+00  E=-1.110600D+00
              MO Center=  3.3D-02,  3.7D+00,  2.8D-01, r^2= 1.2D+01
   Bfn.  Coefficient  Atom+Function         Bfn.  Coefficient  Atom+Function  
  ----- ------------  ---------------      ----- ------------  ---------------
    87      0.243076  10 C  s                83      0.227825  10 C  s         
    42      0.203815   5 C  s                38      0.175081   5 C  s         
 
 Vector   61  Occ=2.000000D+00  E=-1.091482D+00
              MO Center=  8.7D-01, -4.6D+00,  5.5D-01, r^2= 1.1D+01
   Bfn.  Coefficient  Atom+Function         Bfn.  Coefficient  Atom+Function  
  ----- ------------  ---------------      ----- ------------  ---------------
   285      0.217520  32 C  s               281      0.196320  32 C  s         
   267      0.172503  30 C  s               263      0.166425  30 C  s         
 
 Vector   62  Occ=2.000000D+00  E=-1.068312D+00
              MO Center= -1.5D+00, -5.7D-01, -2.6D-01, r^2= 1.9D+01
   Bfn.  Coefficient  Atom+Function         Bfn.  Coefficient  Atom+Function  
  ----- ------------  ---------------      ----- ------------  ---------------
   159      0.186329  18 C  s               123     -0.167126  14 C  s         
 
 Vector   63  Occ=2.000000D+00  E=-1.039415D+00
              MO Center= -1.2D+00, -1.3D+00,  4.6D-01, r^2= 1.8D+01
   Bfn.  Coefficient  Atom+Function         Bfn.  Coefficient  Atom+Function  
  ----- ------------  ---------------      ----- ------------  ---------------
   222      0.206352  25 C  s               267     -0.193256  30 C  s         
   218      0.172383  25 C  s               159     -0.159740  18 C  s         
   263     -0.155474  30 C  s         
 
 Vector   64  Occ=2.000000D+00  E=-1.006735D+00
              MO Center= -4.2D+00,  2.2D+00, -5.9D-01, r^2= 8.1D+00
   Bfn.  Coefficient  Atom+Function         Bfn.  Coefficient  Atom+Function  
  ----- ------------  ---------------      ----- ------------  ---------------
   182      0.206284  21 C  s               195     -0.203928  22 N  s         
   168      0.183929  19 C  s               193      0.177508  22 N  py        
   177     -0.169070  20 N  s               194     -0.167822  22 N  pz        
   202     -0.156226  23 N  py              175     -0.151711  20 N  py        
   186      0.150939  21 C  s         
 
 Vector   65  Occ=2.000000D+00  E=-9.997608D-01
              MO Center=  1.7D+00,  4.2D+00, -8.5D-02, r^2= 1.0D+01
   Bfn.  Coefficient  Atom+Function         Bfn.  Coefficient  Atom+Function  
  ----- ------------  ---------------      ----- ------------  ---------------
    15      0.297575   2 C  s                11      0.207524   2 C  s         
     6     -0.172051   1 N  s                42     -0.150508   5 C  s         
 
 Vector   66  Occ=2.000000D+00  E=-9.678734D-01
              MO Center=  4.4D+00, -5.6D+00, -7.8D-02, r^2= 3.2D+00
   Bfn.  Coefficient  Atom+Function         Bfn.  Coefficient  Atom+Function  
  ----- ------------  ---------------      ----- ------------  ---------------
   339      0.337362  38 C  s               335      0.278533  38 C  s         
   330     -0.272875  37 C  s               326     -0.229810  37 C  s         
   334     -0.150353  38 C  s         
 
 Vector   67  Occ=2.000000D+00  E=-9.642557D-01
              MO Center= -3.7D+00,  2.0D+00, -7.0D-01, r^2= 1.2D+01
   Bfn.  Coefficient  Atom+Function         Bfn.  Coefficient  Atom+Function  
  ----- ------------  ---------------      ----- ------------  ---------------
   202      0.225674  23 N  py              184     -0.196749  21 C  py        
   150      0.167612  17 C  s               176      0.155803  20 N  pz        
 
 Vector   68  Occ=2.000000D+00  E=-9.585499D-01
              MO Center=  1.9D+00, -5.6D+00, -1.7D-01, r^2= 1.1D+01
   Bfn.  Coefficient  Atom+Function         Bfn.  Coefficient  Atom+Function  
  ----- ------------  ---------------      ----- ------------  ---------------
   312      0.289586  35 C  s               308      0.204447  35 C  s         
   330     -0.205027  37 C  s               290     -0.177847  33 C  s         
   326     -0.159470  37 C  s               285     -0.153974  32 C  s         
 
 Vector   69  Occ=2.000000D+00  E=-9.374613D-01
              MO Center= -2.9D+00,  1.6D+00, -9.3D-01, r^2= 1.0D+01
   Bfn.  Coefficient  Atom+Function         Bfn.  Coefficient  Atom+Function  
  ----- ------------  ---------------      ----- ------------  ---------------
   150      0.273515  17 C  s               159     -0.214959  18 C  s         
   193      0.168277  22 N  py              146      0.161336  17 C  s         
   176     -0.161490  20 N  pz        
 
 Vector   70  Occ=2.000000D+00  E=-9.273936D-01
              MO Center= -1.8D+00,  3.1D+00, -2.1D-01, r^2= 2.2D+01
   Bfn.  Coefficient  Atom+Function         Bfn.  Coefficient  Atom+Function  
  ----- ------------  ---------------      ----- ------------  ---------------
   203      0.195336  23 N  pz               58      0.176606   7 O  py        
   184     -0.177006  21 C  py              168     -0.175969  19 C  s         
 
 Vector   71  Occ=2.000000D+00  E=-9.223821D-01
              MO Center=  2.5D-01,  3.9D+00, -1.5D-01, r^2= 3.1D+01
   Bfn.  Coefficient  Atom+Function         Bfn.  Coefficient  Atom+Function  
  ----- ------------  ---------------      ----- ------------  ---------------
    58      0.274398   7 O  py              168      0.153155  19 C  s         
   203     -0.153653  23 N  pz              184      0.152444  21 C  py        
 
 Vector   72  Occ=2.000000D+00  E=-9.150924D-01
              MO Center=  5.5D-01,  2.0D+00,  7.1D-01, r^2= 2.9D+01
   Bfn.  Coefficient  Atom+Function         Bfn.  Coefficient  Atom+Function  
  ----- ------------  ---------------      ----- ------------  ---------------
    58      0.230123   7 O  py              249      0.205889  28 C  s         
   267     -0.157471  30 C  s         
 
 Vector   73  Occ=2.000000D+00  E=-9.016652D-01
              MO Center= -4.1D-01, -2.0D+00,  7.4D-01, r^2= 2.0D+01
   Bfn.  Coefficient  Atom+Function         Bfn.  Coefficient  Atom+Function  
  ----- ------------  ---------------      ----- ------------  ---------------
   249      0.245931  28 C  s               267     -0.186383  30 C  s         
 
 Vector   74  Occ=2.000000D+00  E=-8.933551D-01
              MO Center=  2.3D-01,  1.1D+00,  2.6D-01, r^2= 2.1D+01
   Bfn.  Coefficient  Atom+Function         Bfn.  Coefficient  Atom+Function  
  ----- ------------  ---------------      ----- ------------  ---------------
    75      0.203894   9 N  px              353     -0.150556  44 H  s         
 
 Vector   75  Occ=2.000000D+00  E=-8.823332D-01
              MO Center= -9.9D-01,  5.0D-01,  1.2D-01, r^2= 1.3D+01
   Bfn.  Coefficient  Atom+Function         Bfn.  Coefficient  Atom+Function  
  ----- ------------  ---------------      ----- ------------  ---------------
   113      0.236257  13 N  pz              111     -0.169600  13 N  px        
   359     -0.165644  47 H  s         
 
 Vector   76  Occ=2.000000D+00  E=-8.644293D-01
              MO Center=  2.6D-02, -4.2D+00, -2.3D-01, r^2= 1.1D+01
   Bfn.  Coefficient  Atom+Function         Bfn.  Coefficient  Atom+Function  
  ----- ------------  ---------------      ----- ------------  ---------------
   210      0.175447  24 N  px              285      0.163712  32 C  s         
   290     -0.162618  33 C  s               294     -0.159866  33 C  s         
   423     -0.159582  79 H  s         
 
 Vector   77  Occ=2.000000D+00  E=-8.555639D-01
              MO Center= -4.8D+00,  2.8D+00, -2.5D-01, r^2= 4.8D+00
   Bfn.  Coefficient  Atom+Function         Bfn.  Coefficient  Atom+Function  
  ----- ------------  ---------------      ----- ------------  ---------------
   194      0.265047  22 N  pz              203      0.230329  23 N  pz        
   185     -0.213191  21 C  pz              176      0.208804  20 N  pz        
   207      0.167808  23 N  pz              198      0.161445  22 N  pz        
   379      0.155863  57 H  s               381     -0.154135  58 H  s         
 
 Vector   78  Occ=2.000000D+00  E=-8.524689D-01
              MO Center=  3.2D-02, -3.8D+00,  2.0D-01, r^2= 6.8D+00
   Bfn.  Coefficient  Atom+Function         Bfn.  Coefficient  Atom+Function  
  ----- ------------  ---------------      ----- ------------  ---------------
   210      0.196489  24 N  px              273      0.164805  31 N  px        
   275      0.153720  31 N  pz        
 
 Vector   79  Occ=2.000000D+00  E=-8.391319D-01
              MO Center= -3.0D+00,  1.1D+00, -8.8D-01, r^2= 9.9D+00
   Bfn.  Coefficient  Atom+Function         Bfn.  Coefficient  Atom+Function  
  ----- ------------  ---------------      ----- ------------  ---------------
   174      0.215878  20 N  px              167      0.161595  19 C  pz        
   130     -0.152009  15 C  py        
 
 Vector   80  Occ=2.000000D+00  E=-8.335405D-01
              MO Center= -3.4D-01,  3.2D+00,  2.0D-01, r^2= 1.0D+01
   Bfn.  Coefficient  Atom+Function         Bfn.  Coefficient  Atom+Function  
  ----- ------------  ---------------      ----- ------------  ---------------
    77      0.237201   9 N  pz               84      0.189796  10 C  px        
    94     -0.174921  11 C  py               81      0.172987   9 N  pz        
 
 Vector   81  Occ=2.000000D+00  E=-8.208878D-01
              MO Center= -1.0D+00, -7.5D-01,  2.5D-02, r^2= 3.1D+01
   Bfn.  Coefficient  Atom+Function         Bfn.  Coefficient  Atom+Function  
  ----- ------------  ---------------      ----- ------------  ---------------
   321      0.213228  36 C  s               193     -0.176948  22 N  py        
 
 Vector   82  Occ=2.000000D+00  E=-8.202303D-01
              MO Center= -3.1D+00,  9.1D-01,  6.2D-02, r^2= 2.5D+01
   Bfn.  Coefficient  Atom+Function         Bfn.  Coefficient  Atom+Function  
  ----- ------------  ---------------      ----- ------------  ---------------
   193      0.269401  22 N  py              202      0.200796  23 N  py        
   197      0.197363  22 N  py              377     -0.168726  56 H  s         
   321      0.157697  36 C  s         
 
 Vector   83  Occ=2.000000D+00  E=-8.136725D-01
              MO Center=  1.1D+00, -1.1D+00,  2.1D-02, r^2= 3.1D+01
   Bfn.  Coefficient  Atom+Function         Bfn.  Coefficient  Atom+Function  
  ----- ------------  ---------------      ----- ------------  ---------------
   321      0.250286  36 C  s               312     -0.151721  35 C  s         
 
 Vector   84  Occ=2.000000D+00  E=-8.040925D-01
              MO Center=  2.4D+00,  4.6D+00, -7.9D-02, r^2= 1.6D+01
   Bfn.  Coefficient  Atom+Function         Bfn.  Coefficient  Atom+Function  
  ----- ------------  ---------------      ----- ------------  ---------------
    39      0.236913   5 C  px               48     -0.202052   6 C  px        
    42     -0.178907   5 C  s                57     -0.165358   7 O  px        
 
 Vector   85  Occ=2.000000D+00  E=-7.924629D-01
              MO Center= -3.4D+00,  1.8D+00, -1.2D+00, r^2= 8.0D+00
   Bfn.  Coefficient  Atom+Function         Bfn.  Coefficient  Atom+Function  
  ----- ------------  ---------------      ----- ------------  ---------------
   175      0.306466  20 N  py              179      0.292527  20 N  py        
   168      0.193323  19 C  s               166     -0.177115  19 C  py        
   202      0.152122  23 N  py              184     -0.150585  21 C  py        
 
 Vector   86  Occ=2.000000D+00  E=-7.861801D-01
              MO Center= -8.4D-01,  2.7D+00, -3.1D-01, r^2= 1.7D+01
   Bfn.  Coefficient  Atom+Function         Bfn.  Coefficient  Atom+Function  
  ----- ------------  ---------------      ----- ------------  ---------------
   183      0.136524  21 C  px              120      0.135639  14 C  px        
   123     -0.134898  14 C  s               192      0.126939  22 N  px        
 
 Vector   87  Occ=2.000000D+00  E=-7.839575D-01
              MO Center=  5.8D-02, -1.5D+00,  4.1D-01, r^2= 2.1D+01
   Bfn.  Coefficient  Atom+Function         Bfn.  Coefficient  Atom+Function  
  ----- ------------  ---------------      ----- ------------  ---------------
   221      0.150738  25 C  pz        
 
 Vector   88  Occ=2.000000D+00  E=-7.711119D-01
              MO Center= -1.4D-01,  2.3D+00,  2.9D-01, r^2= 1.8D+01
   Bfn.  Coefficient  Atom+Function         Bfn.  Coefficient  Atom+Function  
  ----- ------------  ---------------      ----- ------------  ---------------
   105      0.142746  12 O  s                41      0.130152   5 C  pz        
 
 Vector   89  Occ=2.000000D+00  E=-7.542198D-01
              MO Center= -6.9D-01, -3.1D+00,  1.5D-01, r^2= 1.2D+01
   Bfn.  Coefficient  Atom+Function         Bfn.  Coefficient  Atom+Function  
  ----- ------------  ---------------      ----- ------------  ---------------
   255      0.192120  29 O  px              239      0.156303  27 O  pz        
 
 Vector   90  Occ=2.000000D+00  E=-7.488305D-01
              MO Center= -2.2D+00,  1.5D+00, -8.4D-01, r^2= 1.4D+01
   Bfn.  Coefficient  Atom+Function         Bfn.  Coefficient  Atom+Function  
  ----- ------------  ---------------      ----- ------------  ---------------
   167      0.179565  19 C  pz              165      0.150336  19 C  px        
 
 Vector   91  Occ=2.000000D+00  E=-7.462108D-01
              MO Center=  1.8D+00,  4.0D+00,  5.3D-01, r^2= 2.1D+01
   Bfn.  Coefficient  Atom+Function         Bfn.  Coefficient  Atom+Function  
  ----- ------------  ---------------      ----- ------------  ---------------
    59      0.208937   7 O  pz               50      0.153707   6 C  pz        
 
 Vector   92  Occ=2.000000D+00  E=-7.394524D-01
              MO Center= -1.8D-01, -1.9D+00,  5.5D-01, r^2= 2.6D+01
   Bfn.  Coefficient  Atom+Function         Bfn.  Coefficient  Atom+Function  
  ----- ------------  ---------------      ----- ------------  ---------------
   255     -0.169227  29 O  px              248      0.168312  28 C  pz        
 
 Vector   93  Occ=2.000000D+00  E=-7.332019D-01
              MO Center=  1.7D+00,  3.3D+00, -3.6D-01, r^2= 2.1D+01
   Bfn.  Coefficient  Atom+Function         Bfn.  Coefficient  Atom+Function  
  ----- ------------  ---------------      ----- ------------  ---------------
     4      0.164138   1 N  py               69     -0.151166   8 O  s         
 
 Vector   94  Occ=2.000000D+00  E=-7.284932D-01
              MO Center=  4.3D-02,  9.1D-01,  2.7D-01, r^2= 2.1D+01
   Bfn.  Coefficient  Atom+Function         Bfn.  Coefficient  Atom+Function  
  ----- ------------  ---------------      ----- ------------  ---------------
    32      0.168309   4 O  pz               86      0.153265  10 C  pz        
 
 Vector   95  Occ=2.000000D+00  E=-7.187322D-01
              MO Center= -2.1D-01, -2.2D+00,  3.8D-01, r^2= 2.3D+01
   Bfn.  Coefficient  Atom+Function         Bfn.  Coefficient  Atom+Function  
  ----- ------------  ---------------      ----- ------------  ---------------
   246      0.147969  28 C  px              257     -0.140922  29 O  pz        
   302     -0.137968  34 O  pz        
 
 Vector   96  Occ=2.000000D+00  E=-7.165584D-01
              MO Center=  2.3D+00,  3.1D+00, -2.1D-01, r^2= 2.7D+01
   Bfn.  Coefficient  Atom+Function         Bfn.  Coefficient  Atom+Function  
  ----- ------------  ---------------      ----- ------------  ---------------
    69      0.239455   8 O  s                67     -0.166272   8 O  py        
    66      0.164978   8 O  px               49      0.156415   6 C  py        
    50      0.154535   6 C  pz        
 
 Vector   97  Occ=2.000000D+00  E=-7.136284D-01
              MO Center=  1.4D-01, -2.3D+00,  1.7D-01, r^2= 2.5D+01
   Bfn.  Coefficient  Atom+Function         Bfn.  Coefficient  Atom+Function  
  ----- ------------  ---------------      ----- ------------  ---------------
   291     -0.139330  33 C  px              282      0.130985  32 C  px        
 
 Vector   98  Occ=2.000000D+00  E=-7.096417D-01
              MO Center=  1.4D+00,  3.7D+00, -6.9D-01, r^2= 1.7D+01
   Bfn.  Coefficient  Atom+Function         Bfn.  Coefficient  Atom+Function  
  ----- ------------  ---------------      ----- ------------  ---------------
    69      0.188329   8 O  s                57     -0.168292   7 O  px        
     4      0.158128   1 N  py                3      0.154261   1 N  px        
   343      0.150064  39 H  s         
 
 Vector   99  Occ=2.000000D+00  E=-7.081891D-01
              MO Center= -1.1D+00,  1.0D+00, -3.9D-01, r^2= 1.5D+01
   Bfn.  Coefficient  Atom+Function         Bfn.  Coefficient  Atom+Function  
  ----- ------------  ---------------      ----- ------------  ---------------
   149      0.197443  17 C  pz              122     -0.172041  14 C  pz        
 
 Vector  100  Occ=2.000000D+00  E=-7.035062D-01
              MO Center= -1.2D+00, -2.3D+00,  3.8D-01, r^2= 1.7D+01
   Bfn.  Coefficient  Atom+Function         Bfn.  Coefficient  Atom+Function  
  ----- ------------  ---------------      ----- ------------  ---------------
   266      0.161359  30 C  pz        
 
 Vector  101  Occ=2.000000D+00  E=-6.969950D-01
              MO Center= -1.5D+00,  1.3D+00, -3.7D-01, r^2= 1.7D+01
   Bfn.  Coefficient  Atom+Function         Bfn.  Coefficient  Atom+Function  
  ----- ------------  ---------------      ----- ------------  ---------------
   156      0.155867  18 C  px        
 
 Vector  102  Occ=2.000000D+00  E=-6.849765D-01
              MO Center=  1.2D+00, -4.7D+00, -1.7D-01, r^2= 1.5D+01
   Bfn.  Coefficient  Atom+Function         Bfn.  Coefficient  Atom+Function  
  ----- ------------  ---------------      ----- ------------  ---------------
   302      0.230212  34 O  pz              293     -0.160097  33 C  pz        
 
 Vector  103  Occ=2.000000D+00  E=-6.807382D-01
              MO Center= -3.6D-02, -3.1D+00, -4.1D-01, r^2= 2.0D+01
   Bfn.  Coefficient  Atom+Function         Bfn.  Coefficient  Atom+Function  
  ----- ------------  ---------------      ----- ------------  ---------------
   239      0.244201  27 O  pz              302      0.224739  34 O  pz        
   293     -0.181235  33 C  pz              240     -0.165372  27 O  s         
 
 Vector  104  Occ=2.000000D+00  E=-6.767619D-01
              MO Center= -3.3D-01, -1.9D+00, -9.4D-02, r^2= 2.1D+01
   Bfn.  Coefficient  Atom+Function         Bfn.  Coefficient  Atom+Function  
  ----- ------------  ---------------      ----- ------------  ---------------
   138      0.217504  16 O  px              302      0.150081  34 O  pz        
 
 Vector  105  Occ=2.000000D+00  E=-6.755280D-01
              MO Center=  4.8D-01,  1.5D+00, -1.0D-01, r^2= 2.5D+01
   Bfn.  Coefficient  Atom+Function         Bfn.  Coefficient  Atom+Function  
  ----- ------------  ---------------      ----- ------------  ---------------
    59      0.175605   7 O  pz              239      0.150502  27 O  pz        
 
 Vector  106  Occ=2.000000D+00  E=-6.687119D-01
              MO Center=  1.2D+00,  3.2D+00,  3.0D-01, r^2= 1.9D+01
   Bfn.  Coefficient  Atom+Function         Bfn.  Coefficient  Atom+Function  
  ----- ------------  ---------------      ----- ------------  ---------------
    59      0.212399   7 O  pz        
 
 Vector  107  Occ=2.000000D+00  E=-6.601196D-01
              MO Center=  9.9D-01, -3.4D+00,  1.2D-01, r^2= 1.9D+01
   Bfn.  Coefficient  Atom+Function         Bfn.  Coefficient  Atom+Function  
  ----- ------------  ---------------      ----- ------------  ---------------
   230      0.144008  26 C  pz        
 
 Vector  108  Occ=2.000000D+00  E=-6.551390D-01
              MO Center= -1.5D+00, -5.1D-01,  4.0D-01, r^2= 1.4D+01
   Bfn.  Coefficient  Atom+Function         Bfn.  Coefficient  Atom+Function  
  ----- ------------  ---------------      ----- ------------  ---------------
   158      0.177180  18 C  pz              264     -0.171175  30 C  px        
   212      0.160822  24 N  pz        
 
 Vector  109  Occ=2.000000D+00  E=-6.546478D-01
              MO Center=  1.6D+00,  4.3D+00,  1.8D-01, r^2= 1.1D+01
   Bfn.  Coefficient  Atom+Function         Bfn.  Coefficient  Atom+Function  
  ----- ------------  ---------------      ----- ------------  ---------------
    57      0.196317   7 O  px               13     -0.175013   2 C  py        
    86      0.169348  10 C  pz               77     -0.159702   9 N  pz        
 
 Vector  110  Occ=2.000000D+00  E=-6.499995D-01
              MO Center=  2.3D+00, -4.1D+00, -5.2D-02, r^2= 1.9D+01
   Bfn.  Coefficient  Atom+Function         Bfn.  Coefficient  Atom+Function  
  ----- ------------  ---------------      ----- ------------  ---------------
   302      0.158319  34 O  pz        
 
 Vector  111  Occ=2.000000D+00  E=-6.476432D-01
              MO Center=  1.0D+00,  3.0D+00,  7.4D-01, r^2= 1.1D+01
   Bfn.  Coefficient  Atom+Function         Bfn.  Coefficient  Atom+Function  
  ----- ------------  ---------------      ----- ------------  ---------------
    23      0.288359   3 C  pz               31      0.251456   4 O  py        
    76      0.189946   9 N  py               33     -0.186439   4 O  s         
   104      0.174425  12 O  pz               30     -0.160484   4 O  px        
    35      0.150793   4 O  py        
 
 Vector  112  Occ=2.000000D+00  E=-6.403879D-01
              MO Center= -2.3D-01, -3.6D+00, -1.5D-01, r^2= 1.5D+01
   Bfn.  Coefficient  Atom+Function         Bfn.  Coefficient  Atom+Function  
  ----- ------------  ---------------      ----- ------------  ---------------
   302     -0.172181  34 O  pz              229      0.161739  26 C  py        
 
 Vector  113  Occ=2.000000D+00  E=-6.344696D-01
              MO Center= -1.6D+00,  8.0D-01, -1.6D-01, r^2= 1.4D+01
   Bfn.  Coefficient  Atom+Function         Bfn.  Coefficient  Atom+Function  
  ----- ------------  ---------------      ----- ------------  ---------------
   147      0.180068  17 C  px        
 
 Vector  114  Occ=2.000000D+00  E=-6.269371D-01
              MO Center= -7.4D-01, -4.9D-01, -1.7D-01, r^2= 1.9D+01
   Bfn.  Coefficient  Atom+Function         Bfn.  Coefficient  Atom+Function  
  ----- ------------  ---------------      ----- ------------  ---------------
   230      0.151110  26 C  pz        
 
 Vector  115  Occ=2.000000D+00  E=-6.254971D-01
              MO Center=  1.8D+00,  3.8D+00, -5.7D-01, r^2= 1.6D+01
   Bfn.  Coefficient  Atom+Function         Bfn.  Coefficient  Atom+Function  
  ----- ------------  ---------------      ----- ------------  ---------------
    67      0.214771   8 O  py               40      0.174845   5 C  py        
     3      0.162651   1 N  px        
 
 Vector  116  Occ=2.000000D+00  E=-6.215195D-01
              MO Center= -1.9D-01,  1.8D+00, -8.0D-01, r^2= 2.0D+01
   Bfn.  Coefficient  Atom+Function         Bfn.  Coefficient  Atom+Function  
  ----- ------------  ---------------      ----- ------------  ---------------
   148      0.223002  17 C  py              157     -0.218940  18 C  py        
 
 Vector  117  Occ=2.000000D+00  E=-6.132547D-01
              MO Center= -1.7D-01,  2.0D+00,  4.3D-01, r^2= 1.9D+01
   Bfn.  Coefficient  Atom+Function         Bfn.  Coefficient  Atom+Function  
  ----- ------------  ---------------      ----- ------------  ---------------
   103      0.134069  12 O  py              129     -0.132828  15 C  px        
    57      0.126418   7 O  px        
 
 Vector  118  Occ=2.000000D+00  E=-6.121395D-01
              MO Center= -1.5D+00, -2.3D+00,  2.2D+00, r^2= 1.3D+01
   Bfn.  Coefficient  Atom+Function         Bfn.  Coefficient  Atom+Function  
  ----- ------------  ---------------      ----- ------------  ---------------
   256      0.306427  29 O  py              265     -0.273363  30 C  py        
   260      0.225238  29 O  py              395     -0.189620  65 H  s         
   269     -0.171082  30 C  py              393      0.156927  64 H  s         
   396     -0.150046  65 H  s         
 
 Vector  119  Occ=2.000000D+00  E=-6.071646D-01
              MO Center= -5.2D-01,  6.7D-01,  1.2D-01, r^2= 2.7D+01
   Bfn.  Coefficient  Atom+Function         Bfn.  Coefficient  Atom+Function  
  ----- ------------  ---------------      ----- ------------  ---------------
   192      0.169863  22 N  px              196      0.150561  22 N  px        
 
 Vector  120  Occ=2.000000D+00  E=-6.056527D-01
              MO Center= -3.9D+00,  3.0D+00,  2.3D-01, r^2= 1.2D+01
   Bfn.  Coefficient  Atom+Function         Bfn.  Coefficient  Atom+Function  
  ----- ------------  ---------------      ----- ------------  ---------------
   201     -0.342304  23 N  px              192      0.340476  22 N  px        
   205     -0.311236  23 N  px              196      0.299020  22 N  px        
   203     -0.188312  23 N  pz              194      0.180327  22 N  pz        
   207     -0.161846  23 N  pz        
 
 Vector  121  Occ=2.000000D+00  E=-6.025298D-01
              MO Center=  8.9D-01, -2.5D+00,  1.1D-01, r^2= 2.4D+01
   Bfn.  Coefficient  Atom+Function         Bfn.  Coefficient  Atom+Function  
  ----- ------------  ---------------      ----- ------------  ---------------
   284      0.169012  32 C  pz              336     -0.154648  38 C  px        
 
 Vector  122  Occ=2.000000D+00  E=-5.898259D-01
              MO Center=  1.0D+00, -2.9D+00, -5.0D-02, r^2= 2.4D+01
   Bfn.  Coefficient  Atom+Function         Bfn.  Coefficient  Atom+Function  
  ----- ------------  ---------------      ----- ------------  ---------------
   122      0.174091  14 C  pz              149     -0.171023  17 C  pz        
   329      0.164487  37 C  pz              328      0.150349  37 C  py        
 
 Vector  123  Occ=2.000000D+00  E=-5.877325D-01
              MO Center=  2.1D-01, -3.3D+00,  4.3D-01, r^2= 1.6D+01
   Bfn.  Coefficient  Atom+Function         Bfn.  Coefficient  Atom+Function  
  ----- ------------  ---------------      ----- ------------  ---------------
   246      0.185100  28 C  px              219     -0.154969  25 C  px        
 
[...]
   Bfn.  Coefficient  Atom+Function         Bfn.  Coefficient  Atom+Function  
  ----- ------------  ---------------      ----- ------------  ---------------
   132      2.065324  15 C  s               141     -1.026115  16 O  s         
    87     -0.989966  10 C  s               294     -0.901886  33 C  s         
   215     -0.888637  24 N  py               97      0.873087  11 C  px        
    52      0.864969   6 C  px              105      0.832567  12 O  s         
   231      0.818924  26 C  s               116     -0.806841  13 N  py        
 
 Vector  224  Occ=0.000000D+00  E= 4.685697D-01
              MO Center=  2.8D+00,  3.6D+00, -8.8D-02, r^2= 2.4D+01
   Bfn.  Coefficient  Atom+Function         Bfn.  Coefficient  Atom+Function  
  ----- ------------  ---------------      ----- ------------  ---------------
    52      1.730339   6 C  px               42      1.494855   5 C  s         
    60     -1.275875   7 O  s                53      1.154081   6 C  py        
   222      1.048858  25 C  s                18     -1.005018   2 C  pz        
    43      0.996742   5 C  px               24      0.917167   3 C  s         
   231     -0.843146  26 C  s                27      0.793596   3 C  pz        
 
 Vector  225  Occ=0.000000D+00  E= 4.705265D-01
              MO Center=  2.2D-01, -8.6D-01,  4.4D-02, r^2= 2.4D+01
   Bfn.  Coefficient  Atom+Function         Bfn.  Coefficient  Atom+Function  
  ----- ------------  ---------------      ----- ------------  ---------------
   222      1.719957  25 C  s               285      1.581331  32 C  s         
   134     -1.456658  15 C  py              213     -1.347865  24 N  s         
   123      1.205566  14 C  s               234     -1.175597  26 C  pz        
   231     -1.087188  26 C  s               288      0.996044  32 C  pz        
   214     -0.980546  24 N  px              133      0.956652  15 C  px        
 
 Vector  226  Occ=0.000000D+00  E= 4.881995D-01
              MO Center= -1.7D-01, -1.3D+00, -2.2D-02, r^2= 1.9D+01
   Bfn.  Coefficient  Atom+Function         Bfn.  Coefficient  Atom+Function  
  ----- ------------  ---------------      ----- ------------  ---------------
   133      1.681694  15 C  px              134      1.550629  15 C  py        
   234      1.520039  26 C  pz              240      1.347495  27 O  s         
   285     -1.271409  32 C  s               141     -1.247614  16 O  s         
   215      1.190859  24 N  py              294      0.996727  33 C  s         
    99     -0.978460  11 C  pz              125     -0.954757  14 C  py        
 
 Vector  227  Occ=0.000000D+00  E= 5.093269D-01
              MO Center=  2.6D+00,  3.5D+00, -1.4D-02, r^2= 2.1D+01
   Bfn.  Coefficient  Atom+Function         Bfn.  Coefficient  Atom+Function  
  ----- ------------  ---------------      ----- ------------  ---------------
    53     -2.329392   6 C  py               15      2.314076   2 C  s         
    69     -1.714374   8 O  s                60      1.274476   7 O  s         
    44      1.221895   5 C  py               54     -1.226297   6 C  pz        
    27      1.099323   3 C  pz              234     -0.847248  26 C  pz        
    26     -0.764430   3 C  py               25     -0.722194   3 C  px        
 

 center of mass
 --------------
 x =   0.00897594 y =   0.07023718 z =  -0.00286887

 moments of inertia (a.u.)
 ------------------
       36878.576051859563           0.000000000008          -0.000000000001
           0.000000000008       20373.591283357830          -0.000000000008
          -0.000000000001          -0.000000000008       50414.161357070268
 
  Mulliken analysis of the total density
  --------------------------------------

    Atom       Charge   Shell Charges
 -----------   ------   -------------------------------------------------------
    1 N    7     7.78   2.00  0.76  2.43  0.97  1.63
    2 C    6     6.04   2.00  0.64  2.02  0.71  0.68
    3 C    6     5.26   2.00  0.74  1.93  0.25  0.34
    4 O    8     8.59   2.00  0.91  2.81  1.09  1.78
    5 C    6     6.49   2.00  0.63  2.03  0.78  1.05
    6 C    6     5.20   2.00  0.75  1.95  0.19  0.32
    7 O    8     8.69   2.00  0.89  2.93  1.04  1.83
    8 O    8     8.54   2.00  0.91  2.82  1.07  1.74
    9 N    7     7.91   2.00  0.73  2.52  0.93  1.73
   10 C    6     6.15   2.00  0.64  2.01  0.73  0.77
   11 C    6     5.20   2.00  0.75  1.93  0.21  0.31
   12 O    8     8.67   2.00  0.90  2.84  1.09  1.84
   13 N    7     7.87   2.00  0.73  2.51  0.93  1.69
   14 C    6     6.04   2.00  0.63  2.00  0.69  0.72
   15 C    6     5.16   2.00  0.74  1.94  0.20  0.27
   16 O    8     8.62   2.00  0.91  2.83  1.09  1.79
   17 C    6     6.34   2.00  0.63  2.01  0.77  0.94
   18 C    6     6.31   2.00  0.63  2.01  0.75  0.93
   19 C    6     6.09   2.00  0.64  1.98  0.72  0.76
   20 N    7     7.93   2.00  0.74  2.54  0.94  1.71
   21 C    6     4.75   2.00  0.76  1.97  0.02  0.00
   22 N    7     7.96   2.00  0.73  2.52  0.98  1.73
   23 N    7     7.96   2.00  0.74  2.55  0.94  1.74
   24 N    7     7.86   2.00  0.73  2.52  0.93  1.68
   25 C    6     6.07   2.00  0.63  1.98  0.73  0.73
   26 C    6     5.13   2.00  0.74  1.94  0.19  0.25
   27 O    8     8.62   2.00  0.90  2.85  1.09  1.78
   28 C    6     5.82   2.00  0.65  1.93  0.63  0.62
   29 O    8     8.75   2.00  0.89  2.80  1.07  1.99
   30 C    6     6.50   2.00  0.64  2.03  0.77  1.06
   31 N    7     7.93   2.00  0.73  2.52  0.96  1.72
   32 C    6     6.02   2.00  0.64  1.99  0.71  0.68
   33 C    6     5.63   2.00  0.75  1.96  0.38  0.54
   34 O    8     8.48   2.00  0.92  2.83  1.04  1.69
   35 C    6     6.34   2.00  0.63  2.01  0.74  0.95
   36 C    6     6.15   2.00  0.62  2.02  0.72  0.80
   37 C    6     6.45   2.00  0.64  2.00  0.76  1.05
   38 C    6     6.46   2.00  0.63  2.01  0.76  1.06
   39 H    1     0.66   0.48  0.18
   40 H    1     0.69   0.50  0.19
   41 H    1     0.83   0.51  0.32
   42 H    1     0.76   0.50  0.26
   43 H    1     0.53   0.42  0.11
   44 H    1     0.62   0.47  0.15
   45 H    1     0.70   0.49  0.21
   46 H    1     0.80   0.51  0.29
   47 H    1     0.59   0.46  0.13
   48 H    1     0.81   0.52  0.29
   49 H    1     0.77   0.51  0.26
   50 H    1     0.79   0.51  0.28
   51 H    1     0.85   0.52  0.33
   52 H    1     0.78   0.51  0.27
   53 H    1     0.76   0.51  0.25
   54 H    1     0.81   0.52  0.30
   55 H    1     0.58   0.46  0.12
   56 H    1     0.56   0.45  0.11
   57 H    1     0.55   0.45  0.10
   58 H    1     0.57   0.45  0.12
   59 H    1     0.60   0.46  0.14
   60 H    1     0.73   0.50  0.23
   61 H    1     0.81   0.52  0.29
   62 H    1     0.60   0.43  0.17
   63 H    1     0.86   0.52  0.34
   64 H    1     0.81   0.51  0.30
   65 H    1     0.80   0.51  0.29
   66 H    1     0.60   0.47  0.14
   67 H    1     0.75   0.51  0.24
   68 H    1     0.84   0.52  0.33
   69 H    1     0.81   0.51  0.30
   70 H    1     0.86   0.52  0.33
   71 H    1     0.84   0.51  0.32
   72 H    1     0.83   0.51  0.32
   73 H    1     0.85   0.51  0.33
   74 H    1     0.84   0.51  0.33
   75 H    1     0.84   0.51  0.32
   76 H    1     0.83   0.51  0.32
   77 H    1     0.74   0.54  0.20
   78 H    1     0.58   0.51  0.08
   79 H    1     0.82   0.57  0.25
 
       Multipole analysis of the density wrt the origin
       ------------------------------------------------
 
     L   x y z        total         open         nuclear
     -   - - -        -----         ----         -------
     0   0 0 0      1.000000      0.000000    293.000000
 
     1   1 0 0     -9.992577      0.000000      0.000000
     1   0 1 0      6.700466      0.000000      0.000000
     1   0 0 1      0.795567      0.000000      0.000000
 
     2   2 0 0   -110.754769      0.000000   9285.601705
     2   1 1 0    -56.656902      0.000000   -325.019206
     2   1 0 1     11.584113      0.000000      9.772094
     2   0 2 0    -73.245631      0.000000  18185.756624
     2   0 1 1    -34.232025      0.000000   -124.980609
     2   0 0 2   -169.078151      0.000000   1947.338158
 
                   NWChem Extensible Many-Electron Theory Module
                   ---------------------------------------------
 
              ======================================================
                   This portion of the program was automatically
                  generated by a Tensor Contraction Engine (TCE).
                  The development of this portion of the program
                 and TCE was supported by US Department of Energy,
                Office of Science, Office of Basic Energy Science.
                      TCE is a product of Battelle and PNNL.
              Please cite: S.Hirata, J.Phys.Chem.A 107, 9887 (2003).
              ======================================================
 
                                E and Grad of 1UBQ
 
 
            General Information
            -------------------
      Number of processors :  7680
         Wavefunction type : Restricted Hartree-Fock
          No. of electrons :   292
           Alpha electrons :   146
            Beta electrons :   146
           No. of orbitals :   848
            Alpha orbitals :   424
             Beta orbitals :   424
        Alpha frozen cores :     0
         Beta frozen cores :     0
     Alpha frozen virtuals :     0
      Beta frozen virtuals :     0
         Spin multiplicity : singlet 
    Number of AO functions :   424
       Number of AO shells :   272
        Use of symmetry is : off
      Symmetry adaption is : off
         Schwarz screening : 0.10D-09
 
          Correlation Information
          -----------------------
          Calculation type : Coupled-cluster singles & doubles                           
   Perturbative correction : none                                                        
            Max iterations :      100
        Residual threshold : 0.10D-02
     T(0) DIIS level shift : 0.00D+00
     L(0) DIIS level shift : 0.00D+00
     T(1) DIIS level shift : 0.00D+00
     L(1) DIIS level shift : 0.00D+00
     T(R) DIIS level shift : 0.00D+00
     T(I) DIIS level shift : 0.00D+00
   CC-T/L Amplitude update :  5-th order DIIS
                I/O scheme : Global Array Library
        L-threshold :  0.10D-02
        EOM-threshold :  0.10D-02
 no EOMCCSD initial starts read in
 TCE RESTART OPTIONS
 READ_INT:    F
 WRITE_INT:   T
 READ_TA:     F
 WRITE_TA:    F
 READ_XA:     F
 WRITE_XA:    F
 READ_IN3:    F
 WRITE_IN3:   F
 SLICE:       F
 D4D5:        F
 
            Memory Information
            ------------------
          Available GA space size is    ********** doubles
          Available MA space size is      87250708 doubles
 
 Maximum block size supplied by input
 Maximum block size        40 doubles

 tile_dim =     40

 Block   Spin    Irrep     Size     Offset   Alpha
 -------------------------------------------------
   1    alpha     a     36 doubles       0       1
   2    alpha     a     37 doubles      36       2
   3    alpha     a     36 doubles      73       3
   4    alpha     a     37 doubles     109       4
   5    beta      a     36 doubles     146       1
   6    beta      a     37 doubles     182       2
   7    beta      a     36 doubles     219       3
   8    beta      a     37 doubles     255       4
   9    alpha     a     39 doubles     292       9
  10    alpha     a     40 doubles     331      10
  11    alpha     a     40 doubles     371      11
  12    alpha     a     39 doubles     411      12
  13    alpha     a     40 doubles     450      13
  14    alpha     a     40 doubles     490      14
  15    alpha     a     40 doubles     530      15
  16    beta      a     39 doubles     570       9
  17    beta      a     40 doubles     609      10
  18    beta      a     40 doubles     649      11
  19    beta      a     39 doubles     689      12
  20    beta      a     40 doubles     728      13
  21    beta      a     40 doubles     768      14
  22    beta      a     40 doubles     808      15

 Global array virtual files algorithm will be used

 Parallel file system coherency ......... OK
 size_1e                   179776
  3 ga offset              134832 size_xx_perproc               44944mx    4
  2 ga offset               89888 size_xx_perproc               44944mx    4
  0 ga offset                   0 size_xx_perproc               44944mx    4
 WRITE TENSOR
  filename: /lustre/atlas/scratch/hjjvd/csc242/.3598750/nwc_gbe_dat.f1int.000000            
  1 ga offset               44944 size_xx_perproc               44944mx    4
  unit nr:       77
  file size:          44944
  rec_mem (KB):     2048
  rec_size:         262144
  number of tasks:            1
 
 Fock matrix recomputed
 1-e file size   =           179776
 1-e file name   = /lustre/atlas/scratch/hjjvd/csc242/.3598750/nwc_gbe_dat.f1int.000000
 Cpu & wall time / sec            1.9            2.0
 4-electron integrals stored in orbital form
 
 v2    file size   =       4882398943
 4-index algorithm nr.  15 is used
 imaxsize =       45
 imaxsize ichop =        0
 starting step 1 at               209.62 secs 
 starting step 2 at               274.34 secs 
 starting step 3 at               288.17 secs 
 starting step 4 at               307.71 secs 
 done step 4 at               329.58 secs 
  1 ga offset          1220599735 size_xx_perproc          1220599735mx    4
  2 ga offset          2441199470 size_xx_perproc          1220599735mx    4
  3 ga offset          3661799205 size_xx_perproc          1220599738mx    4
  0 ga offset                   0 size_xx_perproc          1220599735mx    4
 WRITE TENSOR
  filename: /lustre/atlas/scratch/hjjvd/csc242/.3598750/nwc_gbe_dat.v2int.000000            
  unit nr:      178
  file size:     1220599735
  rec_mem (KB):     2048
  rec_size:         262144
  number of tasks:         4657
 Cpu & wall time / sec          137.9          219.5
 T1-number-of-tasks                       28
 
 t1 file size   =            40588
 t1 file name   = /lustre/atlas/scratch/hjjvd/csc242/.3598750/nwc_gbe_dat.t1
 t1 file handle =       -998
 T2-number-of-boxes                     1064
 
 t2 file size   =       2235769393
 t2 file name   = /lustre/atlas/scratch/hjjvd/csc242/.3598750/nwc_gbe_dat.t2
 t2 file handle =       -996
CCSD iterations
 ---------------------------------------------------------
 Iter          Residuum       Correlation     Cpu    Wall 
 ---------------------------------------------------------
NEW TASK SCHEDULING
CCSD_T1_NTS --- OK
CCSD_T2_NTS --- OK
    1   0.5001936244634  -3.9305495851259   412.3   414.3
    2   0.1693854966826  -4.0189961297957   415.6   417.9
    3   0.0688605183520  -4.1170199131470   422.9   424.9
    4   0.0318053431829  -4.1375691058007   419.1   421.2
    5   0.0147382922477  -4.1508008595908   417.3   419.6
 MICROCYCLE DIIS UPDATE:                        5                        5
    6   0.0034920632456  -4.1585553805103   420.3   422.2
    7   0.0016801243258  -4.1590574877625   420.0   422.0
    8   0.0008255475770  -4.1591003667909   418.4   420.4
 -----------------------------------------------------------------
 Iterations converged
 CCSD correlation energy / hartree =        -4.159100366790885
 CCSD total energy / hartree       =     -1894.395525855753476

 Singles contributions

 Doubles contributions

 Task  times  cpu:     3816.7s     wall:     3919.9s
 
 
                                NWChem Input Module
                                -------------------
 
 
 Summary of allocated global arrays
-----------------------------------
  No active global arrays



                         GA Statistics for process    0
                         ------------------------------

       create   destroy   get      put      acc     scatter   gather  read&inc
calls:  888      888     1.54e+04 1822     2200        0        0     1671     
number of processes/call 2.34e+01 2.54e+01 2.07e+01 0.00e+00 0.00e+00
bytes total:             7.69e+10 8.48e+08 1.33e+09 0.00e+00 0.00e+00 1.34e+04
bytes remote:            7.69e+10 7.58e+08 1.32e+09 0.00e+00 0.00e+00 4.40e+03
Max memory consumed for GA by this process: 82945392 bytes
 
MA_summarize_allocated_blocks: starting scan ...
MA_summarize_allocated_blocks: scan completed: 0 heap blocks, 0 stack blocks
MA usage statistics:

	allocation statistics:
					      heap	     stack
					      ----	     -----
	current number of blocks	         0	         0
	maximum number of blocks	        16	        42
	current total bytes		         0	         0
	maximum total bytes		    335232	 545405048
	maximum total K-bytes		       336	    545406
	maximum total M-bytes		         1	       546
 
 
                                     CITATION
                                     --------
                Please cite the following reference when publishing
                           results obtained with NWChem:
 
                 M. Valiev, E.J. Bylaska, N. Govind, K. Kowalski,
              T.P. Straatsma, H.J.J. van Dam, D. Wang, J. Nieplocha,
                        E. Apra, T.L. Windus, W.A. de Jong
                 "NWChem: a comprehensive and scalable open-source
                  solution for large scale molecular simulations"
                      Comput. Phys. Commun. 181, 1477 (2010)
                           doi:10.1016/j.cpc.2010.04.018
 
                                      AUTHORS
                                      -------
          E. Apra, E. J. Bylaska, W. A. de Jong, N. Govind, K. Kowalski,
       T. P. Straatsma, M. Valiev, H. J. J. van Dam, D. Wang, T. L. Windus,
        J. Hammond, J. Autschbach, K. Bhaskaran-Nair, J. Brabec, K. Lopata,
       S. A. Fischer, S. Krishnamoorthy, W. Ma, M. Klemm, O. Villa, Y. Chen,
    V. Anisimov, F. Aquino, S. Hirata, M. T. Hackler, V. Konjkov, T. Risthaus,
       M. Malagoli, A. Marenich, A. Otero-de-la-Roza, J. Mullin, P. Nichols,
      R. Peverati, J. Pittner, Y. Zhao, P.-D. Fan, A. Fonari, M. Williamson,
      R. J. Harrison, J. R. Rehr, M. Dupuis, D. Silverstein, D. M. A. Smith,
            J. Nieplocha, V. Tipparaju, M. Krishnan, B. E. Van Kuiken,
        A. Vazquez-Mayagoitia, L. Jensen, M. Swart, Q. Wu, T. Van Voorhis,
     A. A. Auer, M. Nooijen, L. D. Crosby, E. Brown, G. Cisneros, G. I. Fann,
   H. Fruchtl, J. Garza, K. Hirao, R. A. Kendall, J. A. Nichols, K. Tsemekhman,
    K. Wolinski, J. Anchell, D. E. Bernholdt, P. Borowski, T. Clark, D. Clerc,
   H. Dachsel, M. J. O. Deegan, K. Dyall, D. Elwood, E. Glendening, M. Gutowski,
   A. C. Hess, J. Jaffe, B. G. Johnson, J. Ju, R. Kobayashi, R. Kutteh, Z. Lin,
   R. Littlefield, X. Long, B. Meng, T. Nakajima, S. Niu, L. Pollack, M. Rosing,
   K. Glaesemann, G. Sandrone, M. Stave, H. Taylor, G. Thomas, J. H. van Lenthe,
                               A. T. Wong, Z. Zhang.

 Total times  cpu:     3817.0s     wall:     3921.3s
Application 15801562 resources: utime ~32056289s, stime ~74702s, Rss ~924656, inblocks ~54280097, outblocks ~251661187
total 38322148
-rw------- 1 hjjvd hjjvd        888 Sep  3 04:21 nwc_gbe_631g_rhf.nw
-rw------- 1 hjjvd hjjvd      12141 Sep  3 04:21 dgrtl.pdb
-rwx------ 1 hjjvd hjjvd  175324756 Sep  3 04:21 nwchem
-rw------- 1 hjjvd hjjvd    1438243 Sep  3 04:22 nwc_gbe_dat.cfock
-rw------- 1 hjjvd hjjvd    1448720 Sep  3 04:22 nwc_gbe_dat.movecs
-rw------- 1 hjjvd hjjvd     359568 Sep  3 04:25 nwc_gbe_dat.f1int.000003
-rw------- 1 hjjvd hjjvd     359568 Sep  3 04:25 nwc_gbe_dat.f1int.000002
-rw------- 1 hjjvd hjjvd     359568 Sep  3 04:25 nwc_gbe_dat.f1int.000001
-rw------- 1 hjjvd hjjvd     359568 Sep  3 04:25 nwc_gbe_dat.f1int.000000
-rw------- 1 hjjvd hjjvd 9764797896 Sep  3 04:28 nwc_gbe_dat.v2int.000002
-rw------- 1 hjjvd hjjvd 9764797896 Sep  3 04:28 nwc_gbe_dat.v2int.000000
-rw------- 1 hjjvd hjjvd 9764797896 Sep  3 04:29 nwc_gbe_dat.v2int.000001
-rw------- 1 hjjvd hjjvd 9764797920 Sep  3 04:29 nwc_gbe_dat.v2int.000003
-rw------- 1 hjjvd hjjvd    2941878 Sep  3 05:27 nwc_gbe_dat.db
