/autofs/nccs-svm1_home1/hjjvd
CODAR
NWX_TA
Nwchem-6.6.revision27746-src.2015-10-20.tar.gz
bin
lib
man
summitdev
titan
tksvn
PE 0: MPICH Warning: DMAPP optimizations are not supported if libdmapp is not linked into your application. Please see the mpi man page. Disabling all requested DMAPP optimizations.
 argument  1 = nwc_gbe_631g.nw
 


============================== echo of input deck ==============================
echo
start nwc_gbe_dat
title "E and Grad of 1UBQ"
#memory stack 800 mb heap 100 mb global 2000 mb noverify
geometry noautoz
   load format pdb "dgrtl.pdb"
end
basis 631g spherical
  * library 6-31g
end
basis 631gp spherical
  * library 6-31g*
end
basis pvtz spherical
  * library cc-pVTZ
end
basis apvtz spherical
  * library aug-cc-pVTZ
end

set "ao basis" 631g
charge +1
dft
  direct
  xc hfexch
  convergence energy 1d-5 diis 5 ncydp 0 damp 40 dampon 1d99 dampoff 1d-3
  smear
  tolerances acccoul 11
  convergence energy 1d-5
  vectors input atomic output ub_start_631g.mos
  noprint "final vectors analysis" multipole
  maxiter 10
end
set quickguess t
set dft:pstat t
set int:cando_hnd f
set int:acc_std double 1.d-10
task dft ignore

set "ao basis" 631g
dft
  direct
  xc hfexch
  convergence energy 1d-5
  tolerances acccoul 11
  vectors input project 631g ub_start_631g.mos  output ub_631g.mos
  noprint "final vectors analysis" multipole
  maxiter 120
end
task dft ignore

tce
  dft
  ccsd
end
task tce energy
================================================================================


                                         
                                         
 
 
              Northwest Computational Chemistry Package (NWChem) 6.6
              ------------------------------------------------------
 
 
                    Environmental Molecular Sciences Laboratory
                       Pacific Northwest National Laboratory
                                Richland, WA 99352
 
                              Copyright (c) 1994-2015
                       Pacific Northwest National Laboratory
                            Battelle Memorial Institute
 
             NWChem is an open-source computational chemistry package
                        distributed under the terms of the
                      Educational Community License (ECL) 2.0
             A copy of the license is included with this distribution
                              in the LICENSE.TXT file
 
                                  ACKNOWLEDGMENT
                                  --------------

            This software and its documentation were developed at the
            EMSL at Pacific Northwest National Laboratory, a multiprogram
            national laboratory, operated for the U.S. Department of Energy
            by Battelle under Contract Number DE-AC05-76RL01830. Support
            for this work was provided by the Department of Energy Office
            of Biological and Environmental Research, Office of Basic
            Energy Sciences, and the Office of Advanced Scientific Computing.


           Job information
           ---------------

    hostname        = nid01261
    program         = /lustre/atlas/scratch/hjjvd/csc242/.3568295/nwchem
    date            = Wed Aug 16 16:40:51 2017

    compiled        = Mon_Aug_14_15:45:46_2017
    source          = /ccs/home/hjjvd/titan/nwchem-dev
    nwchem branch   = Development
    nwchem revision = 29350
    ga revision     = N/A
    input           = nwc_gbe_631g.nw
    prefix          = nwc_gbe_dat.
    data base       = /lustre/atlas/scratch/hjjvd/csc242/.3568295/nwc_gbe_dat.db
    status          = startup
    nproc           =     1920
    time left       =     -1s



           Memory information
           ------------------

    heap     =    6553594 doubles =     50.0 Mbytes
    stack    =   80740351 doubles =    616.0 Mbytes
    global   =  161480704 doubles =   1232.0 Mbytes (distinct from heap & stack)
    total    =  248774649 doubles =   1898.0 Mbytes
    verify   = yes
    hardfail = no 


           Directory information
           ---------------------
 
  0 permanent = /lustre/atlas/scratch/hjjvd/csc242/.3568295
  0 scratch   = /lustre/atlas/scratch/hjjvd/csc242/.3568295
 
 
 
 
                                NWChem Input Module
                                -------------------
 
 
                                E and Grad of 1UBQ
                                ------------------

 Scaling coordinates for geometry "geometry" by  1.889725989
 (inverse scale =  0.529177249)

 C1  symmetry detected
 
 
                             Geometry "geometry" -> ""
                             -------------------------
 
 Output coordinates in angstroms (scale by  1.889725989 to convert to a.u.)
 
  No.       Tag          Charge          X              Y              Z
 ---- ---------------- ---------- -------------- -------------- --------------
    1 N                    7.0000     2.32906152     4.50497561    -1.74104900
    2 C                    6.0000     2.62746889     4.39747324    -0.31708893
    3 C                    6.0000     1.58316452     3.88229451     0.65826088
    4 O                    8.0000     1.96536223     3.17203504     1.63153031
    5 C                    6.0000     3.17093495     5.77310393     0.17051833
    6 C                    6.0000     4.61984434     5.98216592    -0.22109840
    7 O                    8.0000     5.17470143     7.06570304     0.06565919
    8 O                    8.0000     5.24172042     5.10923915    -0.84227389
    9 N                    7.0000     0.34751118     4.30287770     0.51273907
   10 C                    6.0000    -0.76651384     3.94357402     1.40931708
   11 C                    6.0000    -1.42962453     2.63454319     1.13913479
   12 O                    8.0000    -2.25461301     2.15397265     1.94921872
   13 N                    7.0000    -1.11857252     1.96615596     0.03444200
   14 C                    6.0000    -1.67514052     0.63072531    -0.26339357
   15 C                    6.0000    -0.80180935    -0.40750593     0.42477687
   16 O                    8.0000     0.35946097    -0.12200259     0.78880720
   17 C                    6.0000    -1.69557624     0.34016866    -1.76580603
   18 C                    6.0000    -2.45516489     1.39076317    -2.60100976
   19 C                    6.0000    -3.96055504     1.17262312    -2.27426608
   20 N                    7.0000    -4.36917204     2.37842516    -1.58917952
   21 C                    6.0000    -4.96902685     2.65972446    -0.47410020
   22 N                    7.0000    -5.40925757     1.78228945     0.40777548
   23 N                    7.0000    -5.10570620     3.97134461    -0.14396636
   24 N                    7.0000    -1.29538921    -1.61649224     0.52247552
   25 C                    6.0000    -0.56570687    -2.76611350     1.10378494
   26 C                    6.0000    -0.11142581    -3.65076119    -0.08128729
   27 O                    8.0000    -0.58915638    -3.48311333    -1.19864386
   28 C                    6.0000    -1.47918793    -3.59968258     2.05247294
   29 O                    8.0000    -2.57683571    -4.02927961     1.13594267
   30 C                    6.0000    -2.07456032    -2.87604938     3.24367474
   31 N                    7.0000     0.81388643    -4.54470352     0.20027685
   32 C                    6.0000     1.31248684    -5.50593605    -0.79835355
   33 C                    6.0000     0.14051370    -6.37085985    -1.25458680
   34 O                    8.0000     0.03870186    -6.62648525    -2.42370100
   35 C                    6.0000     2.45042237    -6.32411125    -0.15201459
   36 C                    6.0000     3.69261129    -5.59040550     0.35231822
   37 C                    6.0000     4.70766680    -6.58422804     0.94040330
   38 C                    6.0000     4.42413898    -4.91980436    -0.80833304
   39 H                    1.0000     2.58480150     5.43884488    -2.22572028
   40 H                    1.0000     3.37933543     3.54155260    -0.28833884
   41 H                    1.0000     2.54086211     6.60242560    -0.29281178
   42 H                    1.0000     3.10728899     5.79370085     1.30869185
   43 H                    1.0000     4.63044578     7.82303659     0.57710194
   44 H                    1.0000     0.13215710     4.95838079    -0.32175738
   45 H                    1.0000    -0.36130414     3.91589997     2.47409933
   46 H                    1.0000    -1.56787139     4.73520305     1.23444982
   47 H                    1.0000    -0.43275172     2.41605737    -0.67278395
   48 H                    1.0000    -2.75019383     0.59403206     0.11267823
   49 H                    1.0000    -0.61844170     0.29870313    -2.13699168
   50 H                    1.0000    -2.24657428    -0.64792209    -1.90153682
   51 H                    1.0000    -2.13236094     2.44339667    -2.30635858
   52 H                    1.0000    -2.24324701     1.27875011    -3.71576259
   53 H                    1.0000    -4.56233961     1.03107077    -3.23168567
   54 H                    1.0000    -4.13226686     0.23968514    -1.64266829
   55 H                    1.0000    -4.10975280     3.27006952    -2.14607627
   56 H                    1.0000    -5.28087180     0.72266712     0.22726890
   57 H                    1.0000    -5.89890886     2.12206391     1.31143854
   58 H                    1.0000    -4.71938051     4.73840703    -0.80284397
   59 H                    1.0000    -2.30014202    -1.78622743     0.15528244
   60 H                    1.0000     0.31698638    -2.39451640     1.72256942
   61 H                    1.0000    -0.86489037    -4.42176299     2.54748436
   62 H                    1.0000    -3.54691947    -3.89542208     1.63656496
   63 H                    1.0000    -3.19425144    -3.08211919     3.29344446
   64 H                    1.0000    -1.57788383    -3.24634598     4.20012593
   65 H                    1.0000    -1.89944599    -1.75508254     3.13355521
   66 H                    1.0000     1.22300061    -4.57417275     1.20254884
   67 H                    1.0000     1.73959766    -4.99148459    -1.72178413
   68 H                    1.0000     2.00208582    -6.87456009     0.73962515
   69 H                    1.0000     2.84186606    -6.97212753    -1.00439170
   70 H                    1.0000     3.33405558    -4.83613543     1.12860648
   71 H                    1.0000     4.58444703    -7.59838715     0.43407813
   72 H                    1.0000     5.76562815    -6.19704927     0.76348413
   73 H                    1.0000     4.52554617    -6.69481701     2.06102641
   74 H                    1.0000     4.08863545    -5.38948867    -1.79186445
   75 H                    1.0000     4.18170513    -3.80563401    -0.81677499
   76 H                    1.0000     5.54843388    -5.06355819    -0.68258005
   77 H                    1.0000     1.32610230     4.36202290    -1.85742047
   78 H                    1.0000    -5.55568790     4.22360296     0.69405940
   79 H                    1.0000    -0.54852316    -6.72763283    -0.57488815
 
      Atomic Mass 
      ----------- 
 
      N                 14.003070
      C                 12.000000
      O                 15.994910
      H                  1.007825
 

 Effective nuclear repulsion energy (a.u.)    4475.2626654164

            Nuclear Dipole moment (a.u.) 
            ----------------------------
        X                 Y               Z
 ---------------- ---------------- ----------------
     0.0000000000    -0.0000000000     0.0000000000
 
 
            XYZ format geometry
            -------------------
    79
 geometry
 N                     2.32906152     4.50497561    -1.74104900
 C                     2.62746889     4.39747324    -0.31708893
 C                     1.58316452     3.88229451     0.65826088
 O                     1.96536223     3.17203504     1.63153031
 C                     3.17093495     5.77310393     0.17051833
 C                     4.61984434     5.98216592    -0.22109840
 O                     5.17470143     7.06570304     0.06565919
 O                     5.24172042     5.10923915    -0.84227389
 N                     0.34751118     4.30287770     0.51273907
 C                    -0.76651384     3.94357402     1.40931708
 C                    -1.42962453     2.63454319     1.13913479
 O                    -2.25461301     2.15397265     1.94921872
 N                    -1.11857252     1.96615596     0.03444200
 C                    -1.67514052     0.63072531    -0.26339357
 C                    -0.80180935    -0.40750593     0.42477687
 O                     0.35946097    -0.12200259     0.78880720
 C                    -1.69557624     0.34016866    -1.76580603
 C                    -2.45516489     1.39076317    -2.60100976
 C                    -3.96055504     1.17262312    -2.27426608
 N                    -4.36917204     2.37842516    -1.58917952
 C                    -4.96902685     2.65972446    -0.47410020
 N                    -5.40925757     1.78228945     0.40777548
 N                    -5.10570620     3.97134461    -0.14396636
 N                    -1.29538921    -1.61649224     0.52247552
 C                    -0.56570687    -2.76611350     1.10378494
 C                    -0.11142581    -3.65076119    -0.08128729
 O                    -0.58915638    -3.48311333    -1.19864386
 C                    -1.47918793    -3.59968258     2.05247294
 O                    -2.57683571    -4.02927961     1.13594267
 C                    -2.07456032    -2.87604938     3.24367474
 N                     0.81388643    -4.54470352     0.20027685
 C                     1.31248684    -5.50593605    -0.79835355
 C                     0.14051370    -6.37085985    -1.25458680
 O                     0.03870186    -6.62648525    -2.42370100
 C                     2.45042237    -6.32411125    -0.15201459
 C                     3.69261129    -5.59040550     0.35231822
 C                     4.70766680    -6.58422804     0.94040330
 C                     4.42413898    -4.91980436    -0.80833304
 H                     2.58480150     5.43884488    -2.22572028
 H                     3.37933543     3.54155260    -0.28833884
 H                     2.54086211     6.60242560    -0.29281178
 H                     3.10728899     5.79370085     1.30869185
 H                     4.63044578     7.82303659     0.57710194
 H                     0.13215710     4.95838079    -0.32175738
 H                    -0.36130414     3.91589997     2.47409933
 H                    -1.56787139     4.73520305     1.23444982
 H                    -0.43275172     2.41605737    -0.67278395
 H                    -2.75019383     0.59403206     0.11267823
 H                    -0.61844170     0.29870313    -2.13699168
 H                    -2.24657428    -0.64792209    -1.90153682
 H                    -2.13236094     2.44339667    -2.30635858
 H                    -2.24324701     1.27875011    -3.71576259
 H                    -4.56233961     1.03107077    -3.23168567
 H                    -4.13226686     0.23968514    -1.64266829
 H                    -4.10975280     3.27006952    -2.14607627
 H                    -5.28087180     0.72266712     0.22726890
 H                    -5.89890886     2.12206391     1.31143854
 H                    -4.71938051     4.73840703    -0.80284397
 H                    -2.30014202    -1.78622743     0.15528244
 H                     0.31698638    -2.39451640     1.72256942
 H                    -0.86489037    -4.42176299     2.54748436
 H                    -3.54691947    -3.89542208     1.63656496
 H                    -3.19425144    -3.08211919     3.29344446
 H                    -1.57788383    -3.24634598     4.20012593
 H                    -1.89944599    -1.75508254     3.13355521
 H                     1.22300061    -4.57417275     1.20254884
 H                     1.73959766    -4.99148459    -1.72178413
 H                     2.00208582    -6.87456009     0.73962515
 H                     2.84186606    -6.97212753    -1.00439170
 H                     3.33405558    -4.83613543     1.12860648
 H                     4.58444703    -7.59838715     0.43407813
 H                     5.76562815    -6.19704927     0.76348413
 H                     4.52554617    -6.69481701     2.06102641
 H                     4.08863545    -5.38948867    -1.79186445
 H                     4.18170513    -3.80563401    -0.81677499
 H                     5.54843388    -5.06355819    -0.68258005
 H                     1.32610230     4.36202290    -1.85742047
 H                    -5.55568790     4.22360296     0.69405940
 H                    -0.54852316    -6.72763283    -0.57488815
 
 ==============================================================================
                                internuclear distances
 ------------------------------------------------------------------------------
       center one      |      center two      | atomic units |  angstroms
 ------------------------------------------------------------------------------
    2 C                |   1 N                |     2.75684  |     1.45886
    3 C                |   2 C                |     2.87045  |     1.51898
    4 O                |   3 C                |     2.38869  |     1.26404
    5 C                |   2 C                |     2.94305  |     1.55739
    6 C                |   5 C                |     2.86367  |     1.51539
    7 O                |   6 C                |     2.36340  |     1.25066
    8 O                |   6 C                |     2.34097  |     1.23879
    9 N                |   3 C                |     2.48188  |     1.31336
   10 C                |   9 N                |     2.78631  |     1.47445
   11 C                |  10 C                |     2.81961  |     1.49207
   12 O                |  11 C                |     2.36615  |     1.25211
   13 N                |  11 C                |     2.50974  |     1.32810
   14 C                |  13 N                |     2.79133  |     1.47711
   15 C                |  14 C                |     2.87475  |     1.52125
   16 O                |  15 C                |     2.36222  |     1.25003
   17 C                |  14 C                |     2.89201  |     1.53039
   18 C                |  17 C                |     2.91428  |     1.54217
   19 C                |  18 C                |     2.94006  |     1.55581
   20 N                |  19 C                |     2.73212  |     1.44578
   21 C                |  20 N                |     2.45108  |     1.29706
   22 N                |  21 C                |     2.49372  |     1.31962
   23 N                |  21 C                |     2.56893  |     1.35942
   24 N                |  15 C                |     2.47461  |     1.30951
   25 C                |  24 N                |     2.79781  |     1.48054
   26 C                |  25 C                |     2.92350  |     1.54705
   27 O                |  26 C                |     2.31815  |     1.22671
   28 C                |  25 C                |     2.94536  |     1.55862
   29 O                |  28 C                |     2.82159  |     1.49312
   30 C                |  28 C                |     2.86409  |     1.51561
   31 N                |  26 C                |     2.48886  |     1.31705
   32 C                |  31 N                |     2.78363  |     1.47304
   33 C                |  32 C                |     2.88439  |     1.52636
   34 O                |  33 C                |     2.26967  |     1.20106
   35 C                |  32 C                |     2.91659  |     1.54339
   36 C                |  35 C                |     2.88807  |     1.52830
   37 C                |  36 C                |     2.90543  |     1.53749
   38 C                |  36 C                |     2.88575  |     1.52707
   39 H                |   1 N                |     2.04616  |     1.08278
   40 H                |   2 C                |     2.15357  |     1.13962
   41 H                |   5 C                |     2.15416  |     1.13993
   42 H                |   5 C                |     2.15455  |     1.14014
   43 H                |   7 O                |     2.01000  |     1.06365
   44 H                |   9 N                |     2.04619  |     1.08280
   45 H                |  10 C                |     2.15356  |     1.13961
   46 H                |  10 C                |     2.15415  |     1.13992
   47 H                |  13 N                |     2.04661  |     1.08302
   48 H                |  14 C                |     2.15339  |     1.13952
   49 H                |  17 C                |     2.15438  |     1.14005
   50 H                |  17 C                |     2.15325  |     1.13945
   51 H                |  18 C                |     2.15384  |     1.13976
   52 H                |  18 C                |     2.15473  |     1.14023
   53 H                |  19 C                |     2.15365  |     1.13966
   54 H                |  19 C                |     2.15360  |     1.13964
   55 H                |  20 N                |     2.04620  |     1.08280
   56 H                |  22 N                |     2.04568  |     1.08253
   57 H                |  22 N                |     2.04563  |     1.08250
   58 H                |  23 N                |     2.04558  |     1.08247
   59 H                |  24 N                |     2.04682  |     1.08313
   60 H                |  25 C                |     2.15472  |     1.14023
   61 H                |  28 C                |     2.15314  |     1.13939
   63 H                |  30 C                |     2.15350  |     1.13958
   64 H                |  30 C                |     2.15346  |     1.13956
   65 H                |  30 C                |     2.15409  |     1.13989
   66 H                |  31 N                |     2.04649  |     1.08296
   67 H                |  32 C                |     2.15446  |     1.14009
   68 H                |  35 C                |     2.15381  |     1.13975
   69 H                |  35 C                |     2.15437  |     1.14004
   70 H                |  36 C                |     2.15471  |     1.14022
   71 H                |  37 C                |     2.15467  |     1.14020
   72 H                |  37 C                |     2.15503  |     1.14039
   73 H                |  37 C                |     2.15561  |     1.14070
   74 H                |  38 C                |     2.15503  |     1.14039
   75 H                |  38 C                |     2.15480  |     1.14027
   76 H                |  38 C                |     2.15505  |     1.14040
   77 H                |   1 N                |     1.92706  |     1.01976
   78 H                |  23 N                |     1.85963  |     0.98408
   79 H                |  33 C                |     1.94930  |     1.03153
 ------------------------------------------------------------------------------
                         number of included internuclear distances:         77
 ==============================================================================



 ==============================================================================
                                 internuclear angles
 ------------------------------------------------------------------------------
        center 1       |       center 2       |       center 3       |  degrees
 ------------------------------------------------------------------------------
    2 C                |   1 N                |  39 H                |   116.88
    2 C                |   1 N                |  77 H                |   107.59
   39 H                |   1 N                |  77 H                |   107.58
    1 N                |   2 C                |   3 C                |   120.74
    1 N                |   2 C                |   5 C                |   108.17
    1 N                |   2 C                |  40 H                |   102.41
    3 C                |   2 C                |   5 C                |   109.78
    3 C                |   2 C                |  40 H                |   100.52
    5 C                |   2 C                |  40 H                |   115.17
    2 C                |   3 C                |   4 O                |   118.50
    2 C                |   3 C                |   9 N                |   117.84
    4 O                |   3 C                |   9 N                |   123.35
    2 C                |   5 C                |   6 C                |   112.00
    2 C                |   5 C                |  41 H                |   108.81
    2 C                |   5 C                |  42 H                |   108.00
    6 C                |   5 C                |  41 H                |   108.85
    6 C                |   5 C                |  42 H                |   107.99
   41 H                |   5 C                |  42 H                |   111.21
    5 C                |   6 C                |   7 O                |   118.98
    5 C                |   6 C                |   8 O                |   120.82
    7 O                |   6 C                |   8 O                |   120.18
    6 C                |   7 O                |  43 H                |   120.01
    3 C                |   9 N                |  10 C                |   124.43
    3 C                |   9 N                |  44 H                |   117.80
   10 C                |   9 N                |  44 H                |   117.77
    9 N                |  10 C                |  11 C                |   116.07
    9 N                |  10 C                |  45 H                |   107.78
    9 N                |  10 C                |  46 H                |   105.58
   11 C                |  10 C                |  45 H                |   107.81
   11 C                |  10 C                |  46 H                |   105.61
   45 H                |  10 C                |  46 H                |   114.21
   10 C                |  11 C                |  12 O                |   120.82
   10 C                |  11 C                |  13 N                |   119.21
   12 O                |  11 C                |  13 N                |   119.95
   11 C                |  13 N                |  14 C                |   122.31
   11 C                |  13 N                |  47 H                |   118.84
   14 C                |  13 N                |  47 H                |   118.85
   13 N                |  14 C                |  15 C                |   108.03
   13 N                |  14 C                |  17 C                |   112.00
   13 N                |  14 C                |  48 H                |   108.54
   15 C                |  14 C                |  17 C                |   108.80
   15 C                |  14 C                |  48 H                |   111.74
   17 C                |  14 C                |  48 H                |   107.78
   14 C                |  15 C                |  16 O                |   120.61
   14 C                |  15 C                |  24 N                |   116.58
   16 O                |  15 C                |  24 N                |   122.64
   14 C                |  17 C                |  18 C                |   114.14
   14 C                |  17 C                |  49 H                |   108.30
   14 C                |  17 C                |  50 H                |   106.74
   18 C                |  17 C                |  49 H                |   108.29
   18 C                |  17 C                |  50 H                |   106.74
   49 H                |  17 C                |  50 H                |   112.74
   17 C                |  18 C                |  19 C                |   105.51
   17 C                |  18 C                |  51 H                |   110.47
   17 C                |  18 C                |  52 H                |   111.78
   19 C                |  18 C                |  51 H                |   110.44
   19 C                |  18 C                |  52 H                |   111.80
   51 H                |  18 C                |  52 H                |   106.91
   18 C                |  19 C                |  20 N                |   104.84
   18 C                |  19 C                |  53 H                |   110.60
   18 C                |  19 C                |  54 H                |   112.15
   20 N                |  19 C                |  53 H                |   110.64
   20 N                |  19 C                |  54 H                |   112.18
   53 H                |  19 C                |  54 H                |   106.52
   19 C                |  20 N                |  21 C                |   135.97
   19 C                |  20 N                |  55 H                |   112.05
   21 C                |  20 N                |  55 H                |   111.99
   20 N                |  21 C                |  22 N                |   125.77
   20 N                |  21 C                |  23 N                |   117.68
   22 N                |  21 C                |  23 N                |   116.47
   21 C                |  22 N                |  56 H                |   119.99
   21 C                |  22 N                |  57 H                |   120.00
   56 H                |  22 N                |  57 H                |   120.01
   21 C                |  23 N                |  58 H                |   120.00
   21 C                |  23 N                |  78 H                |   120.01
   58 H                |  23 N                |  78 H                |   119.99
   15 C                |  24 N                |  25 C                |   124.08
   15 C                |  24 N                |  59 H                |   117.97
   25 C                |  24 N                |  59 H                |   117.94
   24 N                |  25 C                |  26 C                |   106.74
   24 N                |  25 C                |  28 C                |   111.43
   24 N                |  25 C                |  60 H                |   109.97
   26 C                |  25 C                |  28 C                |   109.42
   26 C                |  25 C                |  60 H                |   112.01
   28 C                |  25 C                |  60 H                |   107.32
   25 C                |  26 C                |  27 O                |   120.35
   25 C                |  26 C                |  31 N                |   115.51
   27 O                |  26 C                |  31 N                |   124.13
   25 C                |  28 C                |  29 O                |   102.19
   25 C                |  28 C                |  30 C                |   116.95
   25 C                |  28 C                |  61 H                |   109.53
   29 O                |  28 C                |  30 C                |   109.33
   29 O                |  28 C                |  61 H                |   117.09
   30 C                |  28 C                |  61 H                |   102.40
   28 C                |  30 C                |  63 H                |   109.51
   28 C                |  30 C                |  64 H                |   109.47
   28 C                |  30 C                |  65 H                |   109.47
   63 H                |  30 C                |  64 H                |   109.44
   63 H                |  30 C                |  65 H                |   109.45
   64 H                |  30 C                |  65 H                |   109.49
   26 C                |  31 N                |  32 C                |   122.40
   26 C                |  31 N                |  66 H                |   118.80
   32 C                |  31 N                |  66 H                |   118.80
   31 N                |  32 C                |  33 C                |   108.21
   31 N                |  32 C                |  35 C                |   108.15
   31 N                |  32 C                |  67 H                |   112.42
   33 C                |  32 C                |  35 C                |   113.01
   33 C                |  32 C                |  67 H                |   107.53
   35 C                |  32 C                |  67 H                |   107.59
   32 C                |  33 C                |  34 O                |   118.47
   32 C                |  33 C                |  79 H                |   120.79
   34 O                |  33 C                |  79 H                |   120.74
   32 C                |  35 C                |  36 C                |   118.88
   32 C                |  35 C                |  68 H                |   107.07
   32 C                |  35 C                |  69 H                |   103.97
   36 C                |  35 C                |  68 H                |   107.06
   36 C                |  35 C                |  69 H                |   103.92
   68 H                |  35 C                |  69 H                |   116.45
   35 C                |  36 C                |  37 C                |   110.64
   35 C                |  36 C                |  38 C                |   110.45
   35 C                |  36 C                |  70 H                |   106.66
   37 C                |  36 C                |  38 C                |   104.97
   37 C                |  36 C                |  70 H                |   112.01
   38 C                |  36 C                |  70 H                |   112.19
   36 C                |  37 C                |  71 H                |   109.50
   36 C                |  37 C                |  72 H                |   109.49
   36 C                |  37 C                |  73 H                |   109.45
   71 H                |  37 C                |  72 H                |   109.47
   71 H                |  37 C                |  73 H                |   109.44
   72 H                |  37 C                |  73 H                |   109.48
   36 C                |  38 C                |  74 H                |   109.49
   36 C                |  38 C                |  75 H                |   109.44
   36 C                |  38 C                |  76 H                |   109.46
   74 H                |  38 C                |  75 H                |   109.48
   74 H                |  38 C                |  76 H                |   109.46
   75 H                |  38 C                |  76 H                |   109.49
 ------------------------------------------------------------------------------
                            number of included internuclear angles:        136
 ==============================================================================



  library name resolved from: environment
  library file name is: <
 /sw/xk6/nwchem/6.6/sles11.3_pgi15.7.0/src/basis/libraries/>
  


 Summary of "631g" -> "" (spherical)
 ------------------------------------------------------------------------------
       Tag                 Description            Shells   Functions and Types
 ---------------- ------------------------------  ------  ---------------------
 *                           6-31g                    on all atoms 


  library name resolved from: environment
  library file name is: <
 /sw/xk6/nwchem/6.6/sles11.3_pgi15.7.0/src/basis/libraries/>
  


 Summary of "631gp" -> "" (spherical)
 ------------------------------------------------------------------------------
       Tag                 Description            Shells   Functions and Types
 ---------------- ------------------------------  ------  ---------------------
 *                           6-31g*                   on all atoms 


  library name resolved from: environment
  library file name is: <
 /sw/xk6/nwchem/6.6/sles11.3_pgi15.7.0/src/basis/libraries/>
  


 Summary of "pvtz" -> "" (spherical)
 ------------------------------------------------------------------------------
       Tag                 Description            Shells   Functions and Types
 ---------------- ------------------------------  ------  ---------------------
 *                          cc-pVTZ                   on all atoms 


  library name resolved from: environment
  library file name is: <
 /sw/xk6/nwchem/6.6/sles11.3_pgi15.7.0/src/basis/libraries/>
  


 Summary of "apvtz" -> "" (spherical)
 ------------------------------------------------------------------------------
       Tag                 Description            Shells   Functions and Types
 ---------------- ------------------------------  ------  ---------------------
 *                        aug-cc-pVTZ                 on all atoms 


  xc_inp: hfexch multiplicative factor not found.
   smearing value not found; defaulting to 1d-3 Hartree.
 
                                 NWChem DFT Module
                                 -----------------
 
 
                                E and Grad of 1UBQ
 
 
                      Basis "ao basis" -> "631g" (spherical)
                      -----
  N (Nitrogen)
  ------------
            Exponent  Coefficients 
       -------------- ---------------------------------------------------------
  1 S  4.17351100E+03  0.001835
  1 S  6.27457900E+02  0.013995
  1 S  1.42902100E+02  0.068587
  1 S  4.02343300E+01  0.232241
  1 S  1.28202100E+01  0.469070
  1 S  4.39043700E+00  0.360455
 
  2 S  1.16263580E+01 -0.114961
  2 S  2.71628000E+00 -0.169118
  2 S  7.72218000E-01  1.145852
 
  3 P  1.16263580E+01  0.067580
  3 P  2.71628000E+00  0.323907
  3 P  7.72218000E-01  0.740895
 
  4 S  2.12031300E-01  1.000000
 
  5 P  2.12031300E-01  1.000000
 
  C (Carbon)
  ----------
            Exponent  Coefficients 
       -------------- ---------------------------------------------------------
  1 S  3.04752490E+03  0.001835
  1 S  4.57369510E+02  0.014037
  1 S  1.03948690E+02  0.068843
  1 S  2.92101550E+01  0.232184
  1 S  9.28666300E+00  0.467941
  1 S  3.16392700E+00  0.362312
 
  2 S  7.86827240E+00 -0.119332
  2 S  1.88128850E+00 -0.160854
  2 S  5.44249300E-01  1.143456
 
  3 P  7.86827240E+00  0.068999
  3 P  1.88128850E+00  0.316424
  3 P  5.44249300E-01  0.744308
 
  4 S  1.68714400E-01  1.000000
 
  5 P  1.68714400E-01  1.000000
 
  O (Oxygen)
  ----------
            Exponent  Coefficients 
       -------------- ---------------------------------------------------------
  1 S  5.48467170E+03  0.001831
  1 S  8.25234950E+02  0.013950
  1 S  1.88046960E+02  0.068445
  1 S  5.29645000E+01  0.232714
  1 S  1.68975700E+01  0.470193
  1 S  5.79963530E+00  0.358521
 
  2 S  1.55396160E+01 -0.110778
  2 S  3.59993360E+00 -0.148026
  2 S  1.01376180E+00  1.130767
 
  3 P  1.55396160E+01  0.070874
  3 P  3.59993360E+00  0.339753
  3 P  1.01376180E+00  0.727159
 
  4 S  2.70005800E-01  1.000000
 
  5 P  2.70005800E-01  1.000000
 
  H (Hydrogen)
  ------------
            Exponent  Coefficients 
       -------------- ---------------------------------------------------------
  1 S  1.87311370E+01  0.033495
  1 S  2.82539370E+00  0.234727
  1 S  6.40121700E-01  0.813757
 
  2 S  1.61277800E-01  1.000000
 


 Summary of "ao basis" -> "631g" (spherical)
 ------------------------------------------------------------------------------
       Tag                 Description            Shells   Functions and Types
 ---------------- ------------------------------  ------  ---------------------
 N                           6-31g                   5        9   3s2p
 C                           6-31g                   5        9   3s2p
 O                           6-31g                   5        9   3s2p
 H                           6-31g                   2        2   2s




 Summary of "ao basis" -> "631g" (spherical)
 ------------------------------------------------------------------------------
       Tag                 Description            Shells   Functions and Types
 ---------------- ------------------------------  ------  ---------------------
 N                           6-31g                   5        9   3s2p
 C                           6-31g                   5        9   3s2p
 O                           6-31g                   5        9   3s2p
 H                           6-31g                   2        2   2s



int_init: setting std/high accuracies to  1.0D-10  1.0D-20
  int_init: cando_hnd set to always be   F
  Caching 1-el integrals 
 
            General Information
            -------------------
          SCF calculation type: DFT
          Wavefunction type:  closed shell.
          No. of atoms     :    79
          No. of electrons :   292
           Alpha electrons :   146
            Beta electrons :   146
          Charge           :     1
          Spin multiplicity:     1
          Use of symmetry is: off; symmetry adaption is: off
          Maximum number of iterations:  10
          This is a Direct SCF calculation.
          AO basis - number of functions:   424
                     number of shells:   272
          Convergence on energy requested:  1.00D-05
          Convergence on density requested:  1.00D-05
          Convergence on gradient requested:  5.00D-04
 
              XC Information
              --------------
                     Hartree-Fock (Exact) Exchange  1.000          
 
          Convergence Information
          -----------------------
          Convergence aids based upon iterative change in 
          total energy or number of iterations. 
          Levelshifting, if invoked, occurs when the 
          HOMO/LUMO gap drops below (HL_TOL):  1.00D-02
          DIIS, if invoked, will attempt to extrapolate 
          using up to (NFOCK):  5 stored Fock matrices.

                    Damping(40%)  Levelshifting(0.5)       DIIS
                  --------------- ------------------- ---------------
          dE  on:    0.10+100         ASAP                start   
          dE off:    0.10D-02        10 iters            10 iters 

          Smearing applied:  0.10D-02 (hartree)
 
      Screening Tolerance Information
      -------------------------------
          Density screening/tol_rho:  1.00D-10
          AO Gaussian exp screening on grid/accAOfunc:  12
          CD Gaussian exp screening on grid/accCDfunc:  20
          XC Gaussian exp screening on grid/accXCfunc:  20
          Schwarz screening/accCoul:  1.00D-11

 
      Superposition of Atomic Density Guess
      -------------------------------------
 
 Sum of atomic energies:       -1881.33784919
   Time after variat. SCF:      1.8
   Time prior to 1st pass:      1.8
 sigma=  0.10D-02 eFermi= -0.13254 T*S=  0.00E+00 nel(1)=  292.00 nel(

           Memory utilization after 1st SCF pass: 
           Heap Space remaining (MW):        6.51             6511618
          Stack Space remaining (MW):       80.73            80730868

   convergence    iter        energy       DeltaE   RMS-Dens  Diis-err    time
 ---------------- ----- ----------------- --------- --------- ---------  ------
 d=40,ls=0.0,diis     1  -1903.8147849419 -6.38D+03  2.03D-02  4.60D+02     2.8
 sigma=  0.10D-02 eFermi= -0.11123 T*S=  0.00E+00 nel(1)=  292.00 nel(
 d=40,ls=0.0,diis     2  -1892.5664576805  1.12D+01  1.47D-02  7.70D+01     3.8
 sigma=  0.10D-02 eFermi= -0.19085 T*S=  0.00E+00 nel(1)=  292.00 nel(
 d=40,ls=0.0,diis     3  -1890.4453191407  2.12D+00  4.07D-03  1.25D+01     4.8
 sigma=  0.10D-02 eFermi= -0.19502 T*S=  0.00E+00 nel(1)=  292.00 nel(
 d=40,ls=0.0,diis     4  -1890.2369946442  2.08D-01  2.05D-03  2.05D+00     5.8
 sigma=  0.10D-02 eFermi= -0.19563 T*S=  0.00E+00 nel(1)=  292.00 nel(
 d=40,ls=0.0,diis     5  -1890.2189158870  1.81D-02  1.02D-03  3.40D-01     6.7
 sigma=  0.10D-02 eFermi= -0.19659 T*S=  0.00E+00 nel(1)=  292.00 nel(
  Resetting Diis
 d=40,ls=0.0,diis     6  -1890.2260300013 -7.11D-03  5.41D-04  5.59D-02     8.1
 sigma=  0.10D-02 eFermi= -0.19557 T*S=  0.00E+00 nel(1)=  292.00 nel(
 d=40,ls=0.0,diis     7  -1890.2315190274 -5.49D-03  2.14D-04  9.41D-03     9.5
 sigma=  0.10D-02 eFermi= -0.19625 T*S=  0.00E+00 nel(1)=  292.00 nel(
 d=40,ls=0.0,diis     8  -1890.2342633709 -2.74D-03  1.20D-04  1.90D-03    11.0
 sigma=  0.10D-02 eFermi= -0.19644 T*S=  0.00E+00 nel(1)=  292.00 nel(
 d=40,ls=0.0,diis     9  -1890.2354737189 -1.21D-03  9.70D-05  5.64D-04    12.4
 sigma=  0.10D-02 eFermi= -0.19649 T*S=  0.00E+00 nel(1)=  292.00 nel(
 d= 0,ls=0.0,diis    10  -1890.2360172603 -5.44D-04  9.43D-05  1.57D-04    13.8
 
      Calculation failed to converge
      ------------------------------
 


         Total DFT energy =    -1890.236017260284
      One electron energy =   -11467.535782719444
           Coulomb energy =     5348.439944205260
    Exchange-Corr. energy =     -246.402844162505
 Nuclear repulsion energy =     4475.262665416405

 Numeric. integr. density =        0.000000000000

     Total iterative time =     12.1s



 center of mass
 --------------
 x =   0.00897594 y =   0.07023718 z =  -0.00286887

 moments of inertia (a.u.)
 ------------------
       36878.576051859563           0.000000000008          -0.000000000001
           0.000000000008       20373.591283357830          -0.000000000008
          -0.000000000001          -0.000000000008       50414.161357070268
 -----------------------
 Performance information
 -----------------------

 Timer overhead =  1.20D-06 seconds/call

               Nr. of calls         CPU time (s)                 Wall time (s)                GFlops
             ---------------    -------------------     ------------------------------   -------------------
Name         Min   Avg   Max    Min     Avg     Max     Min     Avg     Max   Mx/calls   Min     Max     Sum
dft: 1-e     10    10    10   4.40E-2 6.19E-2 7.60E-2  6.19E-2 6.22E-2 6.25E-2 6.25E-3   0.0     0.0     0.0   
dft: gues     1     1     1   0.18    0.20    0.22     0.23    0.23    0.23    0.23      0.0     0.0     0.0   
dft:  xc     10    10    10    7.5     7.6     7.7      7.7     7.7     7.7    0.77      0.0     0.0     0.0   
dft:fck2e    10    10    10    7.5     7.6     7.7      7.7     7.7     7.7    0.77      0.0     0.0     0.0   
dft:gvxc     10    10    10    0.0    1.52E-4 8.00E-3  1.36E-4 1.79E-4 2.54E-4 2.54E-5   0.0     0.0     0.0   
dft:diag     11    11    11    1.1     1.2     1.2      1.2     1.2     1.2    0.11      0.0     0.0     0.0   
dft:vcoul    10    10    10    0.0    1.00E-2 2.80E-2  8.12E-3 1.00E-2 1.09E-2 1.09E-3   0.0     0.0     0.0   
dft:bld12    10    10    10   0.49    0.56    0.58     0.57    0.57    0.57    5.68E-2   0.0     0.0     0.0   
dft:diis     10    10    10    1.4     1.6     1.6      1.6     1.6     1.6    0.16      0.0     0.0     0.0   
dft:fockb    10    10    10    7.6     7.7     7.8      7.9     7.9     7.9    0.79      0.0     0.0     0.0   
dft:dgemm    71    71    71    1.5     1.8     1.9      1.8     1.9     1.9    2.64E-2   0.0     0.0     0.0   
dft:scfen     1     1     1   0.18    0.29    0.30     0.30    0.30    0.30    0.30      0.0     0.0     0.0   
dft:scf       1     1     1    12.     12.     13.      13.     13.     13.     13.      0.0     0.0     0.0   
dft:total     1     1     1    13.     13.     14.      14.     14.     14.     14.      0.0     0.0     0.0   

 The average no. of pstat calls per process was 1.66D+02
 with a timing overhead of 1.99D-04s

  !! warning: dft energy failed

 Task  times  cpu:       12.9s     wall:       14.0s
 
 
                                NWChem Input Module
                                -------------------
 
 
  xc_inp: hfexch multiplicative factor not found.
 
                                 NWChem DFT Module
                                 -----------------
 
 
                                E and Grad of 1UBQ
 
 


 Summary of "ao basis" -> "631g" (spherical)
 ------------------------------------------------------------------------------
       Tag                 Description            Shells   Functions and Types
 ---------------- ------------------------------  ------  ---------------------
 N                           6-31g                   5        9   3s2p
 C                           6-31g                   5        9   3s2p
 O                           6-31g                   5        9   3s2p
 H                           6-31g                   2        2   2s



int_init: setting std/high accuracies to  1.0D-10  1.0D-20
  int_init: cando_hnd set to always be   F
  Caching 1-el integrals 
 
            General Information
            -------------------
          SCF calculation type: DFT
          Wavefunction type:  closed shell.
          No. of atoms     :    79
          No. of electrons :   292
           Alpha electrons :   146
            Beta electrons :   146
          Charge           :     1
          Spin multiplicity:     1
          Use of symmetry is: off; symmetry adaption is: off
          Maximum number of iterations: 120
          This is a Direct SCF calculation.
          AO basis - number of functions:   424
                     number of shells:   272
          Convergence on energy requested:  1.00D-05
          Convergence on density requested:  1.00D-05
          Convergence on gradient requested:  5.00D-04
 
              XC Information
              --------------
                     Hartree-Fock (Exact) Exchange  1.000          
 
          Convergence Information
          -----------------------
          Convergence aids based upon iterative change in 
          total energy or number of iterations. 
          Levelshifting, if invoked, occurs when the 
          HOMO/LUMO gap drops below (HL_TOL):  1.00D-02
          DIIS, if invoked, will attempt to extrapolate 
          using up to (NFOCK):  5 stored Fock matrices.

                    Damping(40%)  Levelshifting(0.5)       DIIS
                  --------------- ------------------- ---------------
          dE  on:    0.10+100         ASAP                start   
          dE off:    0.10D-02        10 iters            10 iters 

          Smearing applied:  0.10D-02 (hartree)
 
      Screening Tolerance Information
      -------------------------------
          Density screening/tol_rho:  1.00D-10
          AO Gaussian exp screening on grid/accAOfunc:  12
          CD Gaussian exp screening on grid/accCDfunc:  20
          XC Gaussian exp screening on grid/accXCfunc:  20
          Schwarz screening/accCoul:  1.00D-11

 
    Orbital projection guess
    ------------------------

 Filename           = /lustre/atlas/scratch/hjjvd/csc242/.3568295/ub_start_631g.mos
 Old title          = "E and Grad of 1UBQ"
 Old basis size     =   424
 Old no. of sets    =     1
 Old no. of MOs     =   424
 Old basis name     = 631g
 Basis name on file = 631g


int_init: setting std/high accuracies to  1.0D-10  1.0D-20
  int_init: cando_hnd set to always be   F

int_init: setting std/high accuracies to  1.0D-10  1.0D-20
  int_init: cando_hnd set to always be   F
   Time after variat. SCF:     17.7
 sigma=  0.10D-02 eFermi=  0.00000 T*S= -4.45E-21 nel(1)=  292.00 nel(
   Time prior to 1st pass:     17.7
 sigma=  0.10D-02 eFermi= -0.19649 T*S=  0.00E+00 nel(1)=  292.00 nel(
  Resetting Diis

           Memory utilization after 1st SCF pass: 
           Heap Space remaining (MW):        6.49             6485866
          Stack Space remaining (MW):       80.73            80730428

   convergence    iter        energy       DeltaE   RMS-Dens  Diis-err    time
 ---------------- ----- ----------------- --------- --------- ---------  ------
 d=40,ls=0.0,diis     1  -1890.2364233146 -6.37D+03  9.09D-06  5.23D-06    19.1
 sigma=  0.10D-02 eFermi= -0.19650 T*S=  0.00E+00 nel(1)=  292.00 nel(
 d= 0,ls=0.0,diis     2  -1890.2364240422 -7.28D-07  5.43D-06  1.74D-06    20.6


         Total DFT energy =    -1890.236424042234
      One electron energy =   -11467.535225236414
           Coulomb energy =     5348.445807749255
    Exchange-Corr. energy =     -246.409671971480
 Nuclear repulsion energy =     4475.262665416405

 Numeric. integr. density =        0.000000000000

     Total iterative time =      2.9s



 center of mass
 --------------
 x =   0.00897594 y =   0.07023718 z =  -0.00286887

 moments of inertia (a.u.)
 ------------------
       36878.576051859563           0.000000000008          -0.000000000001
           0.000000000008       20373.591283357830          -0.000000000008
          -0.000000000001          -0.000000000008       50414.161357070268
 -----------------------
 Performance information
 -----------------------

 Timer overhead =  4.00D-07 seconds/call

               Nr. of calls         CPU time (s)                 Wall time (s)                GFlops
             ---------------    -------------------     ------------------------------   -------------------
Name         Min   Avg   Max    Min     Avg     Max     Min     Avg     Max   Mx/calls   Min     Max     Sum
dft: 1-e      2     2     2   8.00E-3 1.46E-2 1.60E-2  1.46E-2 1.47E-2 1.49E-2 7.43E-3   0.0     0.0     0.0   
dft: gues     1     1     1    2.2     2.3     2.3      2.4     2.4     2.4     2.4      0.0     0.0     0.0   
dft:  xc      2     2     2    1.9     1.9     1.9      1.9     1.9     1.9    0.95      0.0     0.0     0.0   
dft:fck2e     2     2     2    1.9     1.9     1.9      1.9     1.9     1.9    0.95      0.0     0.0     0.0   
dft:gvxc      2     2     2    0.0    4.38E-5 4.00E-3  2.10E-5 2.62E-5 3.31E-5 1.66E-5   0.0     0.0     0.0   
dft:diag      3     3     3   0.28    0.31    0.32     0.31    0.31    0.31    0.10      0.0     0.0     0.0   
dft:vcoul     2     2     2    0.0    2.93E-3 8.00E-3  1.90E-3 3.05E-3 3.45E-3 1.73E-3   0.0     0.0     0.0   
dft:bld12     2     2     2   8.80E-2 0.11    0.12     0.11    0.11    0.11    5.55E-2   0.0     0.0     0.0   
dft:diis      2     2     2   0.32    0.36    0.37     0.37    0.37    0.37    0.19      0.0     0.0     0.0   
dft:fockb     2     2     2    1.9     1.9     1.9      1.9     1.9     1.9    0.96      0.0     0.0     0.0   
dft:dgemm    15    15    15   0.35    0.41    0.42     0.41    0.41    0.41    2.73E-2   0.0     0.0     0.0   
dft:scfen     1     1     1   6.40E-2 0.11    0.11     0.11    0.11    0.11    0.11      0.0     0.0     0.0   
dft:scf       1     1     1    5.1     5.4     5.4      5.5     5.5     5.5     5.5      0.0     0.0     0.0   
dft:total     1     1     1    5.6     6.0     6.1      6.3     6.3     6.3     6.3      0.0     0.0     0.0   

 The average no. of pstat calls per process was 3.80D+01
 with a timing overhead of 1.52D-05s


 Task  times  cpu:        5.8s     wall:        6.5s
 
 
                                NWChem Input Module
                                -------------------
 
 
 
                                 NWChem DFT Module
                                 -----------------
 
 
                                E and Grad of 1UBQ
 
 


 Summary of "ao basis" -> "631g" (spherical)
 ------------------------------------------------------------------------------
       Tag                 Description            Shells   Functions and Types
 ---------------- ------------------------------  ------  ---------------------
 N                           6-31g                   5        9   3s2p
 C                           6-31g                   5        9   3s2p
 O                           6-31g                   5        9   3s2p
 H                           6-31g                   2        2   2s



  The DFT is already converged 

         Total DFT energy =  -1890.236424042234

 -----------------------
 Performance information
 -----------------------

 Timer overhead =  4.00D-07 seconds/call

               Nr. of calls         CPU time (s)                 Wall time (s)                GFlops
             ---------------    -------------------     ------------------------------   -------------------
Name         Min   Avg   Max    Min     Avg     Max     Min     Avg     Max   Mx/calls   Min     Max     Sum
dft:total     1     1     1   5.20E-2 0.10    0.12     0.21    0.21    0.21    0.21      0.0     0.0     0.0   

 The average no. of pstat calls per process was 1.00D+00
 with a timing overhead of 4.00D-07s

 ipol=                         1
 restricter=   T
 ROHF=   F

int_init: setting std/high accuracies to  1.0D-10  1.0D-20
  int_init: cando_hnd set to always be   F
                   NWChem Extensible Many-Electron Theory Module
                   ---------------------------------------------
 
              ======================================================
                   This portion of the program was automatically
                  generated by a Tensor Contraction Engine (TCE).
                  The development of this portion of the program
                 and TCE was supported by US Department of Energy,
                Office of Science, Office of Basic Energy Science.
                      TCE is a product of Battelle and PNNL.
              Please cite: S.Hirata, J.Phys.Chem.A 107, 9887 (2003).
              ======================================================
 
                                E and Grad of 1UBQ
 
 
            General Information
            -------------------
      Number of processors :  1920
         Wavefunction type : Restricted Kohn-Sham
          No. of electrons :   292
           Alpha electrons :   146
            Beta electrons :   146
           No. of orbitals :   848
            Alpha orbitals :   424
             Beta orbitals :   424
        Alpha frozen cores :     0
         Beta frozen cores :     0
     Alpha frozen virtuals :     0
      Beta frozen virtuals :     0
         Spin multiplicity : singlet 
    Number of AO functions :   424
       Number of AO shells :   272
        Use of symmetry is : off
      Symmetry adaption is : off
         Schwarz screening : 0.10D-10
 
          Correlation Information
          -----------------------
          Calculation type : Coupled-cluster singles & doubles                           
   Perturbative correction : none                                                        
            Max iterations :      100
        Residual threshold : 0.10D-06
     T(0) DIIS level shift : 0.00D+00
     L(0) DIIS level shift : 0.00D+00
     T(1) DIIS level shift : 0.00D+00
     L(1) DIIS level shift : 0.00D+00
     T(R) DIIS level shift : 0.00D+00
     T(I) DIIS level shift : 0.00D+00
   CC-T/L Amplitude update :  5-th order DIIS
                I/O scheme : Global Array Library
        L-threshold :  0.10D-06
        EOM-threshold :  0.10D-06
 no EOMCCSD initial starts read in
 TCE RESTART OPTIONS
 READ_INT:    F
 WRITE_INT:   F
 READ_TA:     F
 WRITE_TA:    F
 READ_XA:     F
 WRITE_XA:    F
 READ_IN3:    F
 WRITE_IN3:   F
 SLICE:       F
 D4D5:        F
 
            Memory Information
            ------------------
          Available GA space size is    ********** doubles
          Available MA space size is      87250700 doubles
 
 Maximum block size        32 doubles

 tile_dim =     31

 Block   Spin    Irrep     Size     Offset   Alpha
 -------------------------------------------------
   1    alpha     a     29 doubles       0       1
   2    alpha     a     29 doubles      29       2
   3    alpha     a     29 doubles      58       3
   4    alpha     a     29 doubles      87       4
   5    alpha     a     30 doubles     116       5
   6    beta      a     29 doubles     146       1
   7    beta      a     29 doubles     175       2
   8    beta      a     29 doubles     204       3
   9    beta      a     29 doubles     233       4
  10    beta      a     30 doubles     262       5
  11    alpha     a     30 doubles     292      11
  12    alpha     a     31 doubles     322      12
  13    alpha     a     31 doubles     353      13
  14    alpha     a     31 doubles     384      14
  15    alpha     a     31 doubles     415      15
  16    alpha     a     31 doubles     446      16
  17    alpha     a     31 doubles     477      17
  18    alpha     a     31 doubles     508      18
  19    alpha     a     31 doubles     539      19
  20    beta      a     30 doubles     570      11
  21    beta      a     31 doubles     600      12
  22    beta      a     31 doubles     631      13
  23    beta      a     31 doubles     662      14
  24    beta      a     31 doubles     693      15
  25    beta      a     31 doubles     724      16
  26    beta      a     31 doubles     755      17
  27    beta      a     31 doubles     786      18
  28    beta      a     31 doubles     817      19

 Global array virtual files algorithm will be used

 Parallel file system coherency ......... OK
 
 Fock matrix recomputed
 1-e file size   =           179776
 1-e file name   = /lustre/atlas/scratch/hjjvd/csc242/.3568295/nwc_gbe_dat.f1
 Cpu & wall time / sec            1.2            1.2
 
 tce_ao2e: fast2e=1
 half-transformed integrals in memory
 
 2-e (intermediate) file size =     66949301504
 2-e (intermediate) file name = /lustre/atlas/scratch/hjjvd/csc242/.3568295/nwc_gbe_dat.v2i
 Cpu & wall time / sec          159.3          160.5
 
 tce_mo2e: fast2e=1
 2-e integrals stored in memory
 tce_mo2e: MA problem                   2
 tce_mo2e: MA problem                   2
 ------------------------------------------------------------------------
 ------------------------------------------------------------------------
 ------------------------------------------------------------------------
 ------------------------------------------------------------------------
 tce_mo2e: MA problem                   2
 tce_mo2e: MA problem                   2
 ------------------------------------------------------------------------
 ------------------------------------------------------------------------
 ------------------------------------------------------------------------
 ------------------------------------------------------------------------
  current input line : 
  current input line : 
     0: 
     0: 
 ------------------------------------------------------------------------
 ------------------------------------------------------------------------
 ------------------------------------------------------------------------
 tce_mo2e: MA problem                   2
 ------------------------------------------------------------------------
 ------------------------------------------------------------------------
 tce_mo2e: MA problem                   2
  current input line : 
     0: 
 ------------------------------------------------------------------------
 tce_mo2e: MA problem                   2
 ------------------------------------------------------------------------
 ------------------------------------------------------------------------
  current input line : 
     0: 
 ------------------------------------------------------------------------
 ------------------------------------------------------------------------
 tce_mo2e: MA problem                   2
 ------------------------------------------------------------------------
 ------------------------------------------------------------------------
  current input line : 
     0: 
 ------------------------------------------------------------------------
 ------------------------------------------------------------------------
 tce_mo2e: MA problem                   2
 tce_mo2e: MA problem                   2
 ------------------------------------------------------------------------
 ------------------------------------------------------------------------
 ------------------------------------------------------------------------
 ------------------------------------------------------------------------
  current input line : 
  current input line : 
     0: 
     0: 
[4] Received an Error in Communication: (2) 4:tce_mo2e: MA problem:
[5] Received an Error in Communication: (2) 5:tce_mo2e: MA problem:
[6] Received an Error in Communication: (2) 6:tce_mo2e: MA problem:
[7] Received an Error in Communication: (2) 7:tce_mo2e: MA problem:
[8] Received an Error in Communication: (2) 8:tce_mo2e: MA problem:
[9] Received an Error in Communication: (2) 9:tce_mo2e: MA problem:
[10] Received an Error in Communication: (2) 10:tce_mo2e: MA problem:
[11] Received an Error in Communication: (2) 11:tce_mo2e: MA problem:
[12] Received an Error in Communication: (2) 12:tce_mo2e: MA problem:
[13] Received an Error in Communication: (2) 13:tce_mo2e: MA problem:
[14] Received an Error in Communication: (2) 14:tce_mo2e: MA problem:
  current input line : 
  current input line : 
 tce_mo2e: MA problem                   2
     0: 
     0: 
 ------------------------------------------------------------------------
 ------------------------------------------------------------------------
 ------------------------------------------------------------------------
 ------------------------------------------------------------------------
 ------------------------------------------------------------------------
 ------------------------------------------------------------------------
 tce_mo2e: MA problem                   2
  current input line : 
 ------------------------------------------------------------------------
 ------------------------------------------------------------------------
 ------------------------------------------------------------------------
 For more information see the NWChem manual at 
 For more information see the NWChem manual at 
 ------------------------------------------------------------------------
     0: 
 http://www.nwchem-sw.org/index.php/NWChem_Documentation
 http://www.nwchem-sw.org/index.php/NWChem_Documentation
  current input line : 
 ------------------------------------------------------------------------
     0: 



 ------------------------------------------------------------------------

 For further details see manual section: 
 For further details see manual section: 
                                                                                                                                                                                                                                                                
 ------------------------------------------------------------------------
 ------------------------------------------------------------------------
                                                                                                                                                                                                                                                                
 ------------------------------------------------------------------------
 For more information see the NWChem manual at 
 http://www.nwchem-sw.org/index.php/NWChem_Documentation
 ------------------------------------------------------------------------
 For more information see the NWChem manual at 

 http://www.nwchem-sw.org/index.php/NWChem_Documentation


 For further details see manual section: 

                                                                                                                                                                                                                                                                
 For further details see manual section: 
                                                                                                                                                                                                                                                                
 tce_mo2e: MA problem                   2
 ------------------------------------------------------------------------
 ------------------------------------------------------------------------
  current input line : 
     0: 
 tce_mo2e: MA problem                   2
 ------------------------------------------------------------------------
 ------------------------------------------------------------------------
 ------------------------------------------------------------------------
 ------------------------------------------------------------------------
 ------------------------------------------------------------------------
 For more information see the NWChem manual at 
  current input line : 
 http://www.nwchem-sw.org/index.php/NWChem_Documentation
     0: 

 tce_mo2e: MA problem                   2
 ------------------------------------------------------------------------

 ------------------------------------------------------------------------
 ------------------------------------------------------------------------
 For further details see manual section: 
 ------------------------------------------------------------------------
                                                                                                                                                                                                                                                                
 For more information see the NWChem manual at 
 ------------------------------------------------------------------------
 http://www.nwchem-sw.org/index.php/NWChem_Documentation
 tce_mo2e: MA problem                   2

  current input line : 

 ------------------------------------------------------------------------
     0: 
 For further details see manual section: 
 ------------------------------------------------------------------------
                                                                                                                                                                                                                                                                
 ------------------------------------------------------------------------
  current input line : 
 ------------------------------------------------------------------------
     0: 
 ------------------------------------------------------------------------
 ------------------------------------------------------------------------
 For more information see the NWChem manual at 
 http://www.nwchem-sw.org/index.php/NWChem_Documentation
 ------------------------------------------------------------------------

 ------------------------------------------------------------------------

 For more information see the NWChem manual at 
 For further details see manual section: 
 http://www.nwchem-sw.org/index.php/NWChem_Documentation
                                                                                                                                                                                                                                                                


 For further details see manual section: 
                                                                                                                                                                                                                                                                
 tce_mo2e: MA problem                   2
 ------------------------------------------------------------------------
 tce_mo2e: MA problem                   2
 ------------------------------------------------------------------------
 ------------------------------------------------------------------------
  current input line : 
     0: 
 ------------------------------------------------------------------------
 ------------------------------------------------------------------------
  current input line : 
     0: 
 ------------------------------------------------------------------------
 ------------------------------------------------------------------------
 ------------------------------------------------------------------------
 For more information see the NWChem manual at 
 ------------------------------------------------------------------------
 http://www.nwchem-sw.org/index.php/NWChem_Documentation

 ------------------------------------------------------------------------

 For more information see the NWChem manual at 
 For further details see manual section: 
 http://www.nwchem-sw.org/index.php/NWChem_Documentation
                                                                                                                                                                                                                                                                


 tce_mo2e: MA problem                   2
 For further details see manual section: 
                                                                                                                                                                                                                                                                
 ------------------------------------------------------------------------
 ------------------------------------------------------------------------
  current input line : 
     0: 
 ------------------------------------------------------------------------
 ------------------------------------------------------------------------
 ------------------------------------------------------------------------
 For more information see the NWChem manual at 
 http://www.nwchem-sw.org/index.php/NWChem_Documentation


 For further details see manual section: 
                                                                                                                                                                                                                                                                
 ------------------------------------------------------------------------
 tce_mo2e: MA problem                   2
 ------------------------------------------------------------------------
 ------------------------------------------------------------------------
  current input line : 
    56: task tce energy
 ------------------------------------------------------------------------
 ------------------------------------------------------------------------
 ------------------------------------------------------------------------
 For more information see the NWChem manual at 
 http://www.nwchem-sw.org/index.php/NWChem_Documentation


 For further details see manual section: 
                                                                                                                                                                                                                                                                
 tce_mo2e: MA problem                   2
 ------------------------------------------------------------------------
 ------------------------------------------------------------------------
  current input line : 
     0: 
 ------------------------------------------------------------------------
 ------------------------------------------------------------------------
 ------------------------------------------------------------------------
 For more information see the NWChem manual at 
 http://www.nwchem-sw.org/index.php/NWChem_Documentation


 For further details see manual section: 
                                                                                                                                                                                                                                                                
 tce_mo2e: MA problem                   2
 ------------------------------------------------------------------------
 ------------------------------------------------------------------------
  current input line : 
     0: 
 ------------------------------------------------------------------------
 ------------------------------------------------------------------------
 ------------------------------------------------------------------------
 For more information see the NWChem manual at 
 http://www.nwchem-sw.org/index.php/NWChem_Documentation


 For further details see manual section: 
                                                                                                                                                                                                                                                                
 tce_mo2e: MA problem                   2
 ------------------------------------------------------------------------
 ------------------------------------------------------------------------
  current input line : 
     0: 
 ------------------------------------------------------------------------
 ------------------------------------------------------------------------
 tce_mo2e: MA problem                   2
 ------------------------------------------------------------------------
 ------------------------------------------------------------------------
  current input line : 
     0: 
 tce_mo2e: MA problem                   2
 ------------------------------------------------------------------------
 ------------------------------------------------------------------------
  current input line : 
     0: 
 tce_mo2e: MA problem                   2
 ------------------------------------------------------------------------
 ------------------------------------------------------------------------
 tce_mo2e: MA problem                   2
 ------------------------------------------------------------------------
 ------------------------------------------------------------------------
  current input line : 
     0: 
 tce_mo2e: MA problem                   2
 ------------------------------------------------------------------------
 ------------------------------------------------------------------------
  current input line : 
     0: 
 tce_mo2e: MA problem                   2
 ------------------------------------------------------------------------
 ------------------------------------------------------------------------
  current input line : 
     0: 
 tce_mo2e: MA problem                   2
 ------------------------------------------------------------------------
 ------------------------------------------------------------------------
  current input line : 
     0: 
 tce_mo2e: MA problem                   2
 ------------------------------------------------------------------------
 ------------------------------------------------------------------------
  current input line : 
     0: 
 ------------------------------------------------------------------------
 ------------------------------------------------------------------------
 tce_mo2e: MA problem                   2
 ------------------------------------------------------------------------
 ------------------------------------------------------------------------
  current input line : 
     0: 
 ------------------------------------------------------------------------
 tce_mo2e: MA problem                   2
 ------------------------------------------------------------------------
 ------------------------------------------------------------------------
  current input line : 
     0: 
 ------------------------------------------------------------------------
 ------------------------------------------------------------------------
 tce_mo2e: MA problem                   2
 ------------------------------------------------------------------------
 ------------------------------------------------------------------------
  current input line : 
     0: 
 tce_mo2e: MA problem                   2
 tce_mo2e: MA problem                   2
 ------------------------------------------------------------------------
 ------------------------------------------------------------------------
 ------------------------------------------------------------------------
 ------------------------------------------------------------------------
  current input line : 
  current input line : 
     0: 
     0: 
 tce_mo2e: MA problem                   2
 ------------------------------------------------------------------------
 ------------------------------------------------------------------------
  current input line : 
     0: 
[1168] Received an Error in Communication: (2) 1095:tce_mo2e: MA problem:
[1169] Received an Error in Communication: (2) 1096:tce_mo2e: MA problem:
[...]
 ------------------------------------------------------------------------

 ------------------------------------------------------------------------

 ------------------------------------------------------------------------
 For more information see the NWChem manual at 
 For further details see manual section: 
 http://www.nwchem-sw.org/index.php/NWChem_Documentation

                                                                                                                                                                                                                                                                

 For further details see manual section: 
                                                                                                                                                                                                                                                                
                                                                                                                                                              
 tce_mo2e: MA problem                   2
 tce_mo2e: MA problem                   2
 ------------------------------------------------------------------------
 ------------------------------------------------------------------------
 ------------------------------------------------------------------------
 ------------------------------------------------------------------------
  current input line : 
     0: 
  current input line : 
 ------------------------------------------------------------------------
     0: 
 ------------------------------------------------------------------------
 ------------------------------------------------------------------------
 ------------------------------------------------------------------------
 For more information see the NWChem manual at 
 ------------------------------------------------------------------------
 http://www.nwchem-sw.org/index.php/NWChem_Documentation
 ------------------------------------------------------------------------

 For more information see the NWChem manual at 

 http://www.nwchem-sw.org/index.php/NWChem_Documentation
 For further details see manual section: 

                                                                                                                                                                                                                                                                

 For further details see manual section: 
                                                                                                                                                                                                                                                                
[101] Received an Error in Communication: (2) 95:tce_mo2e: MA problem:
[107] Received an Error in Communication: (2) 101:tce_mo2e: MA problem:
[108] Received an Error in Communication: (2) 102:tce_mo2e: MA problem:
[37] Received an Error in Communication: (2) 35:tce_mo2e: MA problem:
[36] Received an Error in Communication: (2) 34:tce_mo2e: MA problem:
[38] Received an Error in Communication: (2) 36:tce_mo2e: MA problem:
[40] Received an Error in Communication: (2) 38:tce_mo2e: MA problem:
[39] Received an Error in Communication: (2) 37:tce_mo2e: MA problem:
[46] Received an Error in Communication: (2) 44:tce_mo2e: MA problem:
Rank 32 [Wed Aug 16 16:44:49 2017] [c2-4c0s6n1] application called MPI_Abort(comm=0x84000004, 2) - process 32
Rank 33 [Wed Aug 16 16:44:49 2017] [c2-4c0s6n1] application called MPI_Abort(comm=0x84000002, 2) - process 33
--------
     0: 
  current input line : 
 ------------------------------------------------------------------------
 ------------------------------------------------------------------------
     0: 
 ------------------------------------------------------------------------
 ------------------------------------------------------------------------
 ------------------------------------------------------------------------
 For more information see the NWChem manual at 
 http://www.nwchem-sw.org/index.php/NWChem_Documentation
 ------------------------------------------------------------------------
 ------------------------------------------------------------------------

 For more information see the NWChem manual at 

 ------------------------------------------------------------------------
 http://www.nwchem-sw.org/index.php/NWChem_Documentation
 For more information see the NWChem manual at 
 For further details see manual section: 
 http://www.nwchem-sw.org/index.php/NWChem_Documentation
                                                                                                                                                                                                                                                                




 For further details see manual section: 
 For further details see manual section: 
                                                                                                                                                                                                                                                                
                                                                                                                                                                                                                                                                
 tce_mo2e: MA problem                   2
 ------------------------------------------------------------------------
 ------------------------------------------------------------------------
  current input line : 
     0: 
 ------------------------------------------------------------------------
 ------------------------------------------------------------------------
 ------------------------------------------------------------------------
 For more information see the NWChem manual at 
 http://www.nwchem-sw.org/index.php/NWChem_Documentation


 For further details see manual section: 
                                                                                                                                                                                                                                                                
 tce_mo2e: MA problem                   2
 ------------------------------------------------------------------------
 ------------------------------------------------------------------------
  current input line : 
     0: 
 ------------------------------------------------------------------------
 ------------------------------------------------------------------------
 ------------------------------------------------------------------------
 For more information see the NWChem manual at 
 http://www.nwchem-sw.org/index.php/NWChem_Documentation


 For further details see manual section: 
                                                                                                                                                                                                                                                                
Rank 34 [Wed Aug 16 16:44:49 2017] [c2-4c0s6n1] application called MPI_Abort(comm=0x84000002, 2) - process 34
Rank 45 [Wed Aug 16 16:44:49 2017] [c2-4c0s6n1] application called MPI_Abort(comm=0x84000002, 2) - process 45
Rank 41 [Wed Aug 16 16:44:49 2017] [c2-4c0s6n1] application called MPI_Abort(comm=0x84000002, 2) - process 41
Rank 43 [Wed Aug 16 16:44:49 2017] [c2-4c0s6n1] application called MPI_Abort(comm=0x84000002, 2) - process 43
Rank 42 [Wed Aug 16 16:44:49 2017] [c2-4c0s6n1] application called MPI_Abort(comm=0x84000002, 2) - process 42
Rank 40 [Wed Aug 16 16:44:49 2017] [c2-4c0s6n1] application called MPI_Abort(comm=0x84000002, 2) - process 40
Rank 38 [Wed Aug 16 16:44:49 2017] [c2-4c0s6n1] application called MPI_Abort(comm=0x84000002, 2) - process 38
Rank 36 [Wed Aug 16 16:44:49 2017] [c2-4c0s6n1] application called MPI_Abort(comm=0x84000002, 2) - process 36
Rank 39 [Wed Aug 16 16:44:49 2017] [c2-4c0s6n1] application called MPI_Abort(comm=0x84000002, 2) - process 39
Rank 37 [Wed Aug 16 16:44:49 2017] [c2-4c0s6n1] application called MPI_Abort(comm=0x84000002, 2) - process 37
Rank 46 [Wed Aug 16 16:44:49 2017] [c2-4c0s6n1] application called MPI_Abort(comm=0x84000002, 2) - process 46
Rank 35 [Wed Aug 16 16:44:49 2017] [c2-4c0s6n1] application called MPI_Abort(comm=0x84000002, 2) - process 35
Rank 44 [Wed Aug 16 16:44:49 2017] [c2-4c0s6n1] application called MPI_Abort(comm=0x84000002, 2) - process 44
Rank 140 [Wed Aug 16 16:44:49 2017] [c4-4c0s7n3] application called MPI_Abort(comm=0x84000002, 2) - process 140
Rank 128 [Wed Aug 16 16:44:49 2017] [c4-4c0s7n3] application called MPI_Abort(comm=0x84000004, 2) - process 128
Rank 136 [Wed Aug 16 16:44:49 2017] [c4-4c0s7n3] application called MPI_Abort(comm=0x84000002, 2) - process 136
Rank 132 [Wed Aug 16 16:44:49 2017] [c4-4c0s7n3] application called MPI_Abort(comm=0x84000002, 2) - process 132
Rank 129 [Wed Aug 16 16:44:49 2017] [c4-4c0s7n3] application called MPI_Abort(comm=0x84000002, 2) - process 129
Rank 133 [Wed Aug 16 16:44:49 2017] [c4-4c0s7n3] application called MPI_Abort(comm=0x84000002, 2) - process 133
Rank 135 [Wed Aug 16 16:44:49 2017] [c4-4c0s7n3] application called MPI_Abort(comm=0x84000002, 2) - process 135
Rank 137 [Wed Aug 16 16:44:49 2017] [c4-4c0s7n3] application called MPI_Abort(comm=0x84000002, 2) - process 137
Rank 142 [Wed Aug 16 16:44:49 2017] [c4-4c0s7n3] application called MPI_Abort(comm=0x84000002, 2) - process 142
Rank 139 [Wed Aug 16 16:44:49 2017] [c4-4c0s7n3] application called MPI_Abort(comm=0x84000002, 2) - process 139
Rank 138 [Wed Aug 16 16:44:49 2017] [c4-4c0s7n3] application called MPI_Abort(comm=0x84000002, 2) - process 138
Rank 134 [Wed Aug 16 16:44:49 2017] [c4-4c0s7n3] application called MPI_Abort(comm=0x84000002, 2) - process 134
Rank 141 [Wed Aug 16 16:44:49 2017] [c4-4c0s7n3] application called MPI_Abort(comm=0x84000002, 2) - process 141
[116] Received an Error in Communication: (2) 109:tce_mo2e: MA problem:
[120] Received an Error in Communication: (2) 113:tce_mo2e: MA problem:
Rank 114 [Wed Aug 16 16:44:49 2017] [c4-4c0s7n2] application called MPI_Abort(comm=0x84000002, 2) - process 114
 tce_mo2e: MA problem                   2
 ------------------------------------------------------------------------
 ------------------------------------------------------------------------
  current input line : 
     0: 
 ------------------------------------------------------------------------
 ------------------------------------------------------------------------
 ------------------------------------------------------------------------
 For more information see the NWChem manual at 
 http://www.nwchem-sw.org/index.php/NWChem_Documentation


 For further details see manual section: 
                                                                                                                                                                                                                                                                
Rank 103 [Wed Aug 16 16:44:49 2017] [c2-4c0s7n3] application called MPI_Abort(comm=0x84000002, 2) - process 103
Rank 119 [Wed Aug 16 16:44:49 2017] [c4-4c0s7n2] application called MPI_Abort(comm=0x84000002, 2) - process 119
Rank 115 [Wed Aug 16 16:44:49 2017] [c4-4c0s7n2] application called MPI_Abort(comm=0x84000002, 2) - process 115
Rank 105 [Wed Aug 16 16:44:49 2017] [c2-4c0s7n3] application called MPI_Abort(comm=0x84000002, 2) - process 105
Rank 96 [Wed Aug 16 16:44:49 2017] [c2-4c0s7n3] application called MPI_Abort(comm=0x84000004, 2) - process 96
Rank 104 [Wed Aug 16 16:44:49 2017] [c2-4c0s7n3] application called MPI_Abort(comm=0x84000002, 2) - process 104
Rank 107 [Wed Aug 16 16:44:49 2017] [c2-4c0s7n3] application called MPI_Abort(comm=0x84000002, 2) - process 107
Rank 102 [Wed Aug 16 16:44:49 2017] [c2-4c0s7n3] application called MPI_Abort(comm=0x84000002, 2) - process 102
Rank 101 [Wed Aug 16 16:44:49 2017] [c2-4c0s7n3] application called MPI_Abort(comm=0x84000002, 2) - process 101
Rank 99 [Wed Aug 16 16:44:49 2017] [c2-4c0s7n3] application called MPI_Abort(comm=0x84000002, 2) - process 99
Rank 98 [Wed Aug 16 16:44:49 2017] [c2-4c0s7n3] application called MPI_Abort(comm=0x84000002, 2) - process 98
Rank 97 [Wed Aug 16 16:44:49 2017] [c2-4c0s7n3] application called MPI_Abort(comm=0x84000002, 2) - process 97
Rank 108 [Wed Aug 16 16:44:49 2017] [c2-4c0s7n3] application called MPI_Abort(comm=0x84000002, 2) - process 108
Rank 118 [Wed Aug 16 16:44:49 2017] [c4-4c0s7n2] application called MPI_Abort(comm=0x84000002, 2) - process 118
Rank 131 [Wed Aug 16 16:44:49 2017] [c4-4c0s7n3] application called MPI_Abort(comm=0x84000002, 2) - process 131
Rank 125 [Wed Aug 16 16:44:49 2017] [c4-4c0s7n2] application called MPI_Abort(comm=0x84000002, 2) - process 125
Rank 123 [Wed Aug 16 16:44:49 2017] [c4-4c0s7n2] application called MPI_Abort(comm=0x84000002, 2) - process 123
Rank 122 [Wed Aug 16 16:44:49 2017] [c4-4c0s7n2] application called MPI_Abort(comm=0x84000002, 2) - process 122
Rank 121 [Wed Aug 16 16:44:49 2017] [c4-4c0s7n2] application called MPI_Abort(comm=0x84000002, 2) - process 121
Rank 117 [Wed Aug 16 16:44:49 2017] [c4-4c0s7n2] application called MPI_Abort(comm=0x84000002, 2) - process 117
Rank 124 [Wed Aug 16 16:44:49 2017] [c4-4c0s7n2] application called MPI_Abort(comm=0x84000002, 2) - process 124
Rank 126 [Wed Aug 16 16:44:49 2017] [c4-4c0s7n2] application called MPI_Abort(comm=0x84000002, 2) - process 126
Rank 116 [Wed Aug 16 16:44:49 2017] [c4-4c0s7n2] application called MPI_Abort(comm=0x84000002, 2) - process 116
Rank 120 [Wed Aug 16 16:44:49 2017] [c4-4c0s7n2] application called MPI_Abort(comm=0x84000002, 2) - process 120
_pmiu_daemon(SIGCHLD): [NID 02513] [c6-5c1s7n3] [Wed Aug 16 16:44:49 2017] PE RANK 1664 exit signal Aborted
Rank 130 [Wed Aug 16 16:44:49 2017] [c4-4c0s7n3] application called MPI_Abort(comm=0x84000002, 2) - process 130
Rank 100 [Wed Aug 16 16:44:49 2017] [c2-4c0s7n3] application called MPI_Abort(comm=0x84000002, 2) - process 100
Rank 109 [Wed Aug 16 16:44:49 2017] [c2-4c0s7n3] application called MPI_Abort(comm=0x84000002, 2) - process 109
Rank 110 [Wed Aug 16 16:44:49 2017] [c2-4c0s7n3] application called MPI_Abort(comm=0x84000002, 2) - process 110
Rank 106 [Wed Aug 16 16:44:49 2017] [c2-4c0s7n3] application called MPI_Abort(comm=0x84000002, 2) - process 106
_pmiu_daemon(SIGCHLD): [NID 02815] [c6-4c1s0n3] [Wed Aug 16 16:44:49 2017] PE RANK 1024 exit signal Aborted
_pmiu_daemon(SIGCHLD): [NID 01753] [c4-4c1s3n1] [Wed Aug 16 16:44:49 2017] PE RANK 544 exit signal Aborted
_pmiu_daemon(SIGCHLD): [NID 01945] [c4-7c1s3n1] [Wed Aug 16 16:44:49 2017] PE RANK 1088 exit signal Aborted
_pmiu_daemon(SIGCHLD): [NID 01126] [c2-7c1s3n0] [Wed Aug 16 16:44:49 2017] PE RANK 1177 exit signal Aborted
_pmiu_daemon(SIGCHLD): [NID 02812] [c6-4c1s1n2] [Wed Aug 16 16:44:49 2017] PE RANK 989 exit signal Aborted
[NID 02812] 2017-08-16 16:44:49 Apid 15678885: initiated application termination
_pmiu_daemon(SIGCHLD): [NID 02572] [c6-5c1s6n0] [Wed Aug 16 16:44:49 2017] PE RANK 1594 exit signal Aborted
_pmiu_daemon(SIGCHLD): [NID 01319] [c2-4c1s3n1] [Wed Aug 16 16:44:49 2017] PE RANK 648 exit signal Aborted
_pmiu_daemon(SIGCHLD): [NID 01038] [c2-5c1s7n0] [Wed Aug 16 16:44:49 2017] PE RANK 1808 exit signal Aborted
_pmiu_daemon(SIGCHLD): [NID 01312] [c2-4c1s0n0] [Wed Aug 16 16:44:49 2017] PE RANK 784 exit signal Aborted
_pmiu_daemon(SIGCHLD): [NID 02512] [c6-5c1s7n2] [Wed Aug 16 16:44:49 2017] PE RANK 1648 exit signal Aborted
_pmiu_daemon(SIGCHLD): [NID 01799] [c4-4c1s3n3] [Wed Aug 16 16:44:49 2017] PE RANK 576 exit signal Aborted
_pmiu_daemon(SIGCHLD): [NID 03332] [c8-4c1s2n2] [Wed Aug 16 16:44:49 2017] PE RANK 368 exit signal Aborted
_pmiu_daemon(SIGCHLD): [NID 02515] [c6-5c1s6n3] [Wed Aug 16 16:44:49 2017] PE RANK 1632 exit signal Aborted
_pmiu_daemon(SIGCHLD): [NID 02574] [c6-5c1s7n0] [Wed Aug 16 16:44:49 2017] PE RANK 1689 exit signal Aborted
_pmiu_daemon(SIGCHLD): [NID 03333] [c8-4c1s2n3] [Wed Aug 16 16:44:49 2017] PE RANK 384 exit signal Aborted
_pmiu_daemon(SIGCHLD): [NID 01080] [c2-7c1s3n2] [Wed Aug 16 16:44:49 2017] PE RANK 1143 exit signal Aborted
_pmiu_daemon(SIGCHLD): [NID 01798] [c4-4c1s3n2] [Wed Aug 16 16:44:49 2017] PE RANK 574 exit signal Aborted
_pmiu_daemon(SIGCHLD): [NID 02514] [c6-5c1s6n2] [Wed Aug 16 16:44:49 2017] PE RANK 1621 exit signal Aborted
_pmiu_daemon(SIGCHLD): [NID 01740] [c4-4c0s6n0] [Wed Aug 16 16:44:49 2017] PE RANK 187 exit signal Aborted
_pmiu_daemon(SIGCHLD): [NID 02862] [c6-4c1s7n0] [Wed Aug 16 16:44:49 2017] PE RANK 324 exit signal Aborted
_pmiu_daemon(SIGCHLD): [NID 01032] [c2-5c1s4n0] [Wed Aug 16 16:44:49 2017] PE RANK 2039 exit signal Aborted
_pmiu_daemon(SIGCHLD): [NID 02625] [c6-7c2s0n3] [Wed Aug 16 16:44:49 2017] PE RANK 1328 exit signal Aborted
_pmiu_daemon(SIGCHLD): [NID 01329] [c2-4c0s7n1] [Wed Aug 16 16:44:49 2017] PE RANK 74 exit signal Aborted
_pmiu_daemon(SIGCHLD): [NID 02636] [c6-7c2s6n2] [Wed Aug 16 16:44:49 2017] PE RANK 1424 exit signal Aborted
_pmiu_daemon(SIGCHLD): [NID 02624] [c6-7c2s0n2] [Wed Aug 16 16:44:49 2017] PE RANK 1312 exit signal Aborted
_pmiu_daemon(SIGCHLD): [NID 01036] [c2-5c1s6n0] [Wed Aug 16 16:44:49 2017] PE RANK 1843 exit signal Aborted
_pmiu_daemon(SIGCHLD): [NID 03630] [c8-5c1s7n2] [Wed Aug 16 16:44:49 2017] PE RANK 1520 exit signal Aborted
_pmiu_daemon(SIGCHLD): [NID 01317] [c2-4c1s2n1] [Wed Aug 16 16:44:49 2017] PE RANK 682 exit signal Aborted
_pmiu_daemon(SIGCHLD): [NID 03335] [c8-4c1s3n3] [Wed Aug 16 16:44:49 2017] PE RANK 352 exit signal Aborted
_pmiu_daemon(SIGCHLD): [NID 02575] [c6-5c1s7n1] [Wed Aug 16 16:44:49 2017] PE RANK 1696 exit signal Aborted
_pmiu_daemon(SIGCHLD): [NID 01272] [c2-4c1s3n2] [Wed Aug 16 16:44:49 2017] PE RANK 597 exit signal Aborted
_pmiu_daemon(SIGCHLD): [NID 01990] [c4-7c1s3n2] [Wed Aug 16 16:44:49 2017] PE RANK 1104 exit signal Aborted
_pmiu_daemon(SIGCHLD): [NID 03329] [c8-4c1s0n3] [Wed Aug 16 16:44:49 2017] PE RANK 1056 exit signal Aborted
_pmiu_daemon(SIGCHLD): [NID 02637] [c6-7c2s6n3] [Wed Aug 16 16:44:49 2017] PE RANK 1450 exit signal Aborted
_pmiu_daemon(SIGCHLD): [NID 02849] [c6-4c1s0n1] [Wed Aug 16 16:44:49 2017] PE RANK 1011 exit signal Aborted
_pmiu_daemon(SIGCHLD): [NID 02800] [c6-4c1s7n2] [Wed Aug 16 16:44:49 2017] PE RANK 296 exit signal Aborted
_pmiu_daemon(SIGCHLD): [NID 01944] [c4-7c1s3n0] [Wed Aug 16 16:44:49 2017] PE RANK 1086 exit signal Aborted
_pmiu_daemon(SIGCHLD): [NID 01742] [c4-4c0s7n0] [Wed Aug 16 16:44:49 2017] PE RANK 147 exit signal Aborted
_pmiu_daemon(SIGCHLD): [NID 01318] [c2-4c1s3n0] [Wed Aug 16 16:44:49 2017] PE RANK 638 exit signal Aborted
_pmiu_daemon(SIGCHLD): [NID 01313] [c2-4c1s0n1] [Wed Aug 16 16:44:49 2017] PE RANK 800 exit signal Aborted
_pmiu_daemon(SIGCHLD): [NID 03328] [c8-4c1s0n2] [Wed Aug 16 16:44:49 2017] PE RANK 1041 exit signal Aborted
_pmiu_daemon(SIGCHLD): [NID 02854] [c6-4c1s3n0] [Wed Aug 16 16:44:49 2017] PE RANK 496 exit signal Aborted
_pmiu_daemon(SIGCHLD): [NID 01034] [c2-5c1s5n0] [Wed Aug 16 16:44:49 2017] PE RANK 2001 exit signal Aborted
_pmiu_daemon(SIGCHLD): [NID 02808] [c6-4c1s3n2] [Wed Aug 16 16:44:49 2017] PE RANK 464 exit signal Aborted
_pmiu_daemon(SIGCHLD): [NID 01278] [c2-4c1s0n2] [Wed Aug 16 16:44:49 2017] PE RANK 817 exit signal Aborted
_pmiu_daemon(SIGCHLD): [NID 01127] [c2-7c1s3n1] [Wed Aug 16 16:44:49 2017] PE RANK 1194 exit signal Aborted
_pmiu_daemon(SIGCHLD): [NID 01273] [c2-4c1s3n3] [Wed Aug 16 16:44:49 2017] PE RANK 609 exit signal Aborted
Application 15678885 exit codes: 134
Application 15678885 exit signals: Killed
Application 15678885 resources: utime ~11816s, stime ~1352s, Rss ~524740, inblocks ~12129435, outblocks ~43790690
