 argument  1 = 4pgr_prepar.nw



============================== echo of input deck ==============================
echo
start 4pgr_membrane_model_dat

memory heap 100 stack 6000 global 200  mb

prepare
   system 4pgr_md
   source ../struct_model/4pgr_amber_membrane_model_min_res_rerenum.pdb
   new_top new_seq
   new_rst
   histidine hid
   # counter 25  Cl
   # counter 109 K
   periodic
   box 71.405 68.084 130.494
   solvent name HOH model spce
   write rst 4pgr_md.rst
   write pdb inspection.pdb
end

task prepare
================================================================================


                                         
                                         


              Northwest Computational Chemistry Package (NWChem) 6.8
              ------------------------------------------------------


                    Environmental Molecular Sciences Laboratory
                       Pacific Northwest National Laboratory
                                Richland, WA 99352

                              Copyright (c) 1994-2015
                       Pacific Northwest National Laboratory
                            Battelle Memorial Institute

             NWChem is an open-source computational chemistry package
                        distributed under the terms of the
                      Educational Community License (ECL) 2.0
             A copy of the license is included with this distribution
                              in the LICENSE.TXT file

                                  ACKNOWLEDGMENT
                                  --------------

            This software and its documentation were developed at the
            EMSL at Pacific Northwest National Laboratory, a multiprogram
            national laboratory, operated for the U.S. Department of Energy
            by Battelle under Contract Number DE-AC05-76RL01830. Support
            for this work was provided by the Department of Energy Office
            of Biological and Environmental Research, Office of Basic
            Energy Sciences, and the Office of Advanced Scientific Computing.


           Job information
           ---------------

    hostname        = 10-4-11-81.user.vpn.bnl.local
    program         = /Users/vandam/nwchem-1-codar/bin/MACX64/nwchem
    date            = Thu Jan 11 21:31:20 2018

    compiled        = Thu_Jan_11_15:31:38_2018
    source          = /Users/vandam/nwchem-1-codar
    nwchem branch   = Development
    nwchem revision = nwchem_on_git-34-g12a67e77a53c31e09ac69cd6f4248274c7e2bc51
    ga revision     = nwchem_on_git-34-g12a67e77a
    use scalapack   = F
    input           = 4pgr_prepar.nw
    prefix          = 4pgr_membrane_model_dat.
    data base       = ./4pgr_membrane_model_dat.db
    status          = startup
    nproc           =        1
    time left       =     -1s



           Memory information
           ------------------

    heap     =   13107196 doubles =    100.0 Mbytes
    stack    =  786432001 doubles =   6000.0 Mbytes
    global   =   26214400 doubles =    200.0 Mbytes (distinct from heap & stack)
    total    =  825753597 doubles =   6300.0 Mbytes
    verify   = yes
    hardfail = no 


           Directory information
           ---------------------

  0 permanent = .
  0 scratch   = .




                                NWChem Input Module
                                -------------------


                                  Prepare Module
                                  --------------

 Force field                           amber


 Directories used for fragment and segment files

                                       /Users/vandam/nwchem-1-codar/QA/../src/data/amber_s/
                                       /Users/vandam/nwchem-1-codar/QA/../src/data/amber_x/
                                       /Users/vandam/nwchem-1-codar/QA/../src/data/amber_q/
                                       ./

 Parameter files used to resolve force field parameters

                                       /Users/vandam/nwchem-1-codar/QA/../src/data/amber_s/amber.par
                                       /Users/vandam/nwchem-1-codar/QA/../src/data/amber_x/amber.par
                                       /Users/vandam/nwchem-1-codar/QA/../src/data/amber_q/amber.par
                                       ./amber.par

 Deleted existing topology             4pgr.top

 Deleted existing sequence             ./4pgr.seq

 PDB geometry                          ../struct_model/4pgr_amber_membrane_model_min_res_rerenum.pdb


 Created sequence                      ./4pgr.seq

 
 Parameter file                        /Users/vandam/nwchem-1-codar/QA/../src/data/amber_s/amber.par
 Parameter file                        /Users/vandam/nwchem-1-codar/QA/../src/data/amber_x/amber.par
 Parameter file                        /Users/vandam/nwchem-1-codar/QA/../src/data/amber_q/amber.par
 
 Total charge                             -0.000000

 Created topology                      4pgr.top

 Topology                              4pgr.top

 Restart generation using command file directives

 PDB file                              ../struct_model/4pgr_amber_membrane_model_min_res_rerenum.pdb
 Number of missing coordinates                0
 Total number of atoms                    14202

 Generating missing atom coordinates:     0    1

 Crystal waters done

 Coordinates generated for missing atoms


 Boxsize determined to                     7.065200    6.883400   12.969400


 Periodic boundary conditions on
 Box dimensions set to    71.405000   68.084000  130.494000

 Created restart                       4pgr_md.rst

 Created pdb                           inspection.pdb


 Task  times  cpu:       15.0s     wall:       15.0s


                                NWChem Input Module
                                -------------------


 Summary of allocated global arrays
-----------------------------------
  No active global arrays



                         GA Statistics for process    0
                         ------------------------------

       create   destroy   get      put      acc     scatter   gather  read&inc
calls:    0        0        0        0        0        0        0        0     
number of processes/call 0.00e+00 0.00e+00 0.00e+00 0.00e+00 0.00e+00
bytes total:             0.00e+00 0.00e+00 0.00e+00 0.00e+00 0.00e+00 0.00e+00
bytes remote:            0.00e+00 0.00e+00 0.00e+00 0.00e+00 0.00e+00 0.00e+00
Max memory consumed for GA by this process: 0 bytes

MA_summarize_allocated_blocks: starting scan ...
MA_summarize_allocated_blocks: scan completed: 0 heap blocks, 0 stack blocks
MA usage statistics:

	allocation statistics:
					      heap	     stack
					      ----	     -----
	current number of blocks	         0	         0
	maximum number of blocks	         7	        33
	current total bytes		         0	         0
	maximum total bytes		   1545976	  29060392
	maximum total K-bytes		      1546	     29061
	maximum total M-bytes		         2	        30


                                     CITATION
                                     --------
                Please cite the following reference when publishing
                           results obtained with NWChem:

                 M. Valiev, E.J. Bylaska, N. Govind, K. Kowalski,
              T.P. Straatsma, H.J.J. van Dam, D. Wang, J. Nieplocha,
                        E. Apra, T.L. Windus, W.A. de Jong
                 "NWChem: a comprehensive and scalable open-source
                  solution for large scale molecular simulations"
                      Comput. Phys. Commun. 181, 1477 (2010)
                           doi:10.1016/j.cpc.2010.04.018

                                      AUTHORS
                                      -------
          E. Apra, E. J. Bylaska, W. A. de Jong, N. Govind, K. Kowalski,
       T. P. Straatsma, M. Valiev, H. J. J. van Dam, D. Wang, T. L. Windus,
        J. Hammond, J. Autschbach, K. Bhaskaran-Nair, J. Brabec, K. Lopata,
    S. A. Fischer, S. Krishnamoorthy, M. Jacquelin, W. Ma, M. Klemm, O. Villa,
      Y. Chen, V. Anisimov, F. Aquino, S. Hirata, M. T. Hackler, V. Konjkov,
      T. Risthaus, M. Malagoli, A. Marenich, A. Otero-de-la-Roza, J. Mullin,
        P. Nichols, R. Peverati, J. Pittner, Y. Zhao, P.-D. Fan, A. Fonari,
       M. Williamson, R. J. Harrison, J. R. Rehr, M. Dupuis, D. Silverstein,
    D. M. A. Smith, J. Nieplocha, V. Tipparaju, M. Krishnan, B. E. Van Kuiken,
        A. Vazquez-Mayagoitia, L. Jensen, M. Swart, Q. Wu, T. Van Voorhis,
     A. A. Auer, M. Nooijen, L. D. Crosby, E. Brown, G. Cisneros, G. I. Fann,
   H. Fruchtl, J. Garza, K. Hirao, R. A. Kendall, J. A. Nichols, K. Tsemekhman,
    K. Wolinski, J. Anchell, D. E. Bernholdt, P. Borowski, T. Clark, D. Clerc,
   H. Dachsel, M. J. O. Deegan, K. Dyall, D. Elwood, E. Glendening, M. Gutowski,
   A. C. Hess, J. Jaffe, B. G. Johnson, J. Ju, R. Kobayashi, R. Kutteh, Z. Lin,
   R. Littlefield, X. Long, B. Meng, T. Nakajima, S. Niu, L. Pollack, M. Rosing,
   K. Glaesemann, G. Sandrone, M. Stave, H. Taylor, G. Thomas, J. H. van Lenthe,
                               A. T. Wong, Z. Zhang.

 Total times  cpu:       15.1s     wall:       15.1s
