 argument  1 = 4pgr_prepar_md_analyz.nw



============================== echo of input deck ==============================
echo
start 4pgr_membrane_model_dat

prepare
   system 4pgr_md
   source ../struct_model/4pgr_amber_membrane_model_min_res_rerenum.pdb
   new_top new_seq
   new_rst
   histidine hid
   # counter 25  Cl
   # counter 109 K
   periodic
   box 71.405 68.084 130.494
   solvent name HOH model spce
   write rst 4pgr_md.rst
   write pdb inspection.pdb
end

#task prepare



md
   system 4pgr_md
   leapfrog
   step 0.002 equil 1000 data 0
   isotherm 298.15 trelax 0.1
   isobar
   print step 10
end

#task md dynamics



md
   system 4pgr_md
   leapfrog
   step 0.002 equil 0 data 1000
   isotherm 298.15 trelax 0.1
   isobar
   print step 100
   record coord 100 ascii
end

#task md dynamics

analysis
   system 4pgr_md
   reference 4pgr_md.rst
   file 4pgr_md.trj
   frames 1 10 1
   copy 4pgr_md.pdb
end

task analysis
================================================================================


                                         
                                         


              Northwest Computational Chemistry Package (NWChem) 6.8
              ------------------------------------------------------


                    Environmental Molecular Sciences Laboratory
                       Pacific Northwest National Laboratory
                                Richland, WA 99352

                              Copyright (c) 1994-2015
                       Pacific Northwest National Laboratory
                            Battelle Memorial Institute

             NWChem is an open-source computational chemistry package
                        distributed under the terms of the
                      Educational Community License (ECL) 2.0
             A copy of the license is included with this distribution
                              in the LICENSE.TXT file

                                  ACKNOWLEDGMENT
                                  --------------

            This software and its documentation were developed at the
            EMSL at Pacific Northwest National Laboratory, a multiprogram
            national laboratory, operated for the U.S. Department of Energy
            by Battelle under Contract Number DE-AC05-76RL01830. Support
            for this work was provided by the Department of Energy Office
            of Biological and Environmental Research, Office of Basic
            Energy Sciences, and the Office of Advanced Scientific Computing.


           Job information
           ---------------

    hostname        = erato
    program         = /home/hvandam/nwchem-1-codar/bin/LINUX64/nwchem
    date            = Fri Jan 12 13:38:31 2018

    compiled        = Thu_Jan_11_23:36:03_2018
    source          = /home/hvandam/nwchem-1-codar
    nwchem branch   = Development
    nwchem revision = nwchem_on_git-41-g31adc0322a1f3f8e20b8d7a9df63a9e40bec60e9
    ga revision     = nwchem_on_git-39-g460a7cb
    use scalapack   = F
    input           = 4pgr_prepar_md_analyz.nw
    prefix          = 4pgr_membrane_model_dat.
    data base       = ./4pgr_membrane_model_dat.db
    status          = startup
    nproc           =        1
    time left       =     -1s



           Memory information
           ------------------

    heap     =   13107196 doubles =    100.0 Mbytes
    stack    =   13107201 doubles =    100.0 Mbytes
    global   =   26214400 doubles =    200.0 Mbytes (distinct from heap & stack)
    total    =   52428797 doubles =    400.0 Mbytes
    verify   = yes
    hardfail = no 


           Directory information
           ---------------------

  0 permanent = .
  0 scratch   = .




                                NWChem Input Module
                                -------------------


                               Analysis Input Module
                               ---------------------


                                  Analysis Module
                                  ---------------


 Reference coordinates read from 4pgr_md.rst

 Number of atoms is 14202
 Topology read from 4pgr.top

 Opening trj file 4pgr_md.trj
 Closing trj file 

 Trajectory file header from 4pgr_md.trj

 Selected frames          1 to         10 by         1

 Opening trj file 4pgr_md.trj

 Opening copy file 4pgr_md.pdb

Writing 4pgr_md00001.pdb                                                                                                                                                                                                                                               
Writing 4pgr_md00002.pdb                                                                                                                                                                                                                                               
Writing 4pgr_md00003.pdb                                                                                                                                                                                                                                               
Writing 4pgr_md00004.pdb                                                                                                                                                                                                                                               
Writing 4pgr_md00005.pdb                                                                                                                                                                                                                                               
Writing 4pgr_md00006.pdb                                                                                                                                                                                                                                               
Writing 4pgr_md00007.pdb                                                                                                                                                                                                                                               
Writing 4pgr_md00008.pdb                                                                                                                                                                                                                                               
Writing 4pgr_md00009.pdb                                                                                                                                                                                                                                               
Writing 4pgr_md00010.pdb                                                                                                                                                                                                                                               
 Closing trj file 

 Copied         10 frames to 4pgr_md.pdb

 Task  times  cpu:        1.7s     wall:        1.8s


                                NWChem Input Module
                                -------------------


 Summary of allocated global arrays
-----------------------------------
  No active global arrays



                         GA Statistics for process    0
                         ------------------------------

       create   destroy   get      put      acc     scatter   gather  read&inc
calls:    0        0        0        0        0        0        0        0     
number of processes/call 0.00e+00 0.00e+00 0.00e+00 0.00e+00 0.00e+00
bytes total:             0.00e+00 0.00e+00 0.00e+00 0.00e+00 0.00e+00 0.00e+00
bytes remote:            0.00e+00 0.00e+00 0.00e+00 0.00e+00 0.00e+00 0.00e+00
Max memory consumed for GA by this process: 0 bytes

MA_summarize_allocated_blocks: starting scan ...
MA_summarize_allocated_blocks: scan completed: 0 heap blocks, 0 stack blocks
MA usage statistics:

	allocation statistics:
					      heap	     stack
					      ----	     -----
	current number of blocks	         0	         0
	maximum number of blocks	         0	        27
	current total bytes		         0	         0
	maximum total bytes		         0	   8976104
	maximum total K-bytes		         0	      8977
	maximum total M-bytes		         0	         9


                                     CITATION
                                     --------
                Please cite the following reference when publishing
                           results obtained with NWChem:

                 M. Valiev, E.J. Bylaska, N. Govind, K. Kowalski,
              T.P. Straatsma, H.J.J. van Dam, D. Wang, J. Nieplocha,
                        E. Apra, T.L. Windus, W.A. de Jong
                 "NWChem: a comprehensive and scalable open-source
                  solution for large scale molecular simulations"
                      Comput. Phys. Commun. 181, 1477 (2010)
                           doi:10.1016/j.cpc.2010.04.018

                                      AUTHORS
                                      -------
          E. Apra, E. J. Bylaska, W. A. de Jong, N. Govind, K. Kowalski,
       T. P. Straatsma, M. Valiev, H. J. J. van Dam, D. Wang, T. L. Windus,
        J. Hammond, J. Autschbach, K. Bhaskaran-Nair, J. Brabec, K. Lopata,
    S. A. Fischer, S. Krishnamoorthy, M. Jacquelin, W. Ma, M. Klemm, O. Villa,
      Y. Chen, V. Anisimov, F. Aquino, S. Hirata, M. T. Hackler, V. Konjkov,
      T. Risthaus, M. Malagoli, A. Marenich, A. Otero-de-la-Roza, J. Mullin,
        P. Nichols, R. Peverati, J. Pittner, Y. Zhao, P.-D. Fan, A. Fonari,
       M. Williamson, R. J. Harrison, J. R. Rehr, M. Dupuis, D. Silverstein,
    D. M. A. Smith, J. Nieplocha, V. Tipparaju, M. Krishnan, B. E. Van Kuiken,
        A. Vazquez-Mayagoitia, L. Jensen, M. Swart, Q. Wu, T. Van Voorhis,
     A. A. Auer, M. Nooijen, L. D. Crosby, E. Brown, G. Cisneros, G. I. Fann,
   H. Fruchtl, J. Garza, K. Hirao, R. A. Kendall, J. A. Nichols, K. Tsemekhman,
    K. Wolinski, J. Anchell, D. E. Bernholdt, P. Borowski, T. Clark, D. Clerc,
   H. Dachsel, M. J. O. Deegan, K. Dyall, D. Elwood, E. Glendening, M. Gutowski,
   A. C. Hess, J. Jaffe, B. G. Johnson, J. Ju, R. Kobayashi, R. Kutteh, Z. Lin,
   R. Littlefield, X. Long, B. Meng, T. Nakajima, S. Niu, L. Pollack, M. Rosing,
   K. Glaesemann, G. Sandrone, M. Stave, H. Taylor, G. Thomas, J. H. van Lenthe,
                               A. T. Wong, Z. Zhang.

 Total times  cpu:        1.7s     wall:        1.8s
