/autofs/nccs-svm1_home1/hjjvd
CODAR
NWX_TA
Nwchem-6.6.revision27746-src.2015-10-20.tar.gz
bin
ga-5.6.3.tar.gz
lib
man
summitdev
titan
tksvn
/lustre/atlas/scratch/hjjvd/csc249/.3950074
HVD: Start RHF
total 115722
-rw------- 1 hjjvd hjjvd       253 Apr  6 08:55 h2o.pdb
-rw------- 1 hjjvd hjjvd       827 Apr  6 08:55 nwc_gbe_631g_ccsd.nw
-rw------- 1 hjjvd hjjvd       870 Apr  6 08:55 nwc_gbe_631g_ccsd_t.nw
-rw------- 1 hjjvd hjjvd       349 Apr  6 08:55 nwc_gbe_631g_rhf.nw
-rwx------ 1 hjjvd hjjvd 119291415 Apr  6 08:55 nwchem
PE 0: MPICH Warning: DMAPP optimizations are not supported if libdmapp is not linked into your application. Please see the mpi man page. Disabling all requested DMAPP optimizations.
 argument  1 = nwc_gbe_631g_rhf.nw
 


============================== echo of input deck ==============================
echo
start nwc_gbe_dat
title "E and Grad of 1UBQ"
#memory stack 800 mb heap 100 mb global 2000 mb noverify
geometry noautoz
   load format pdb "h2o.pdb"
end
basis 631g spherical
  * library 6-31g
end

set "ao basis" 631g
charge 0
scf
  thresh 1.0e-6
  tol2e 1.0e-10
  singlet
  rhf
  maxiter 300
end
set scf:pstat t
set tce:pstat t

task scf energy
================================================================================


                                         
                                         
 
 
              Northwest Computational Chemistry Package (NWChem) 6.8
              ------------------------------------------------------
 
 
                    Environmental Molecular Sciences Laboratory
                       Pacific Northwest National Laboratory
                                Richland, WA 99352
 
                              Copyright (c) 1994-2018
                       Pacific Northwest National Laboratory
                            Battelle Memorial Institute
 
             NWChem is an open-source computational chemistry package
                        distributed under the terms of the
                      Educational Community License (ECL) 2.0
             A copy of the license is included with this distribution
                              in the LICENSE.TXT file
 
                                  ACKNOWLEDGMENT
                                  --------------

            This software and its documentation were developed at the
            EMSL at Pacific Northwest National Laboratory, a multiprogram
            national laboratory, operated for the U.S. Department of Energy
            by Battelle under Contract Number DE-AC05-76RL01830. Support
            for this work was provided by the Department of Energy Office
            of Biological and Environmental Research, Office of Basic
            Energy Sciences, and the Office of Advanced Scientific Computing.


           Job information
           ---------------

    hostname        = nid00825
    program         = /lustre/atlas/scratch/hjjvd/csc249/.3950074/nwchem
    date            = Fri Apr  6 08:55:40 2018

    compiled        = Thu_Apr_05_16:52:28_2018
    source          = /ccs/home/hjjvd/titan/nwchem
    nwchem branch   = Development
    nwchem revision = nwchem_on_git-351-g7d4a73345
    ga revision     = ga-5.6.3
    use scalapack   = T
    input           = nwc_gbe_631g_rhf.nw
    prefix          = nwc_gbe_dat.
    data base       = /lustre/atlas/scratch/hjjvd/csc249/.3950074/nwc_gbe_dat.db
    status          = startup
    nproc           =        7
    time left       =     -1s



           Memory information
           ------------------

    heap     =    6553600 doubles =     50.0 Mbytes
    stack    =  104857597 doubles =    800.0 Mbytes
    global   =  268435456 doubles =   2048.0 Mbytes (distinct from heap & stack)
    total    =  379846653 doubles =   2898.0 Mbytes
    verify   = yes
    hardfail = no 


           Directory information
           ---------------------
 
  0 permanent = /lustre/atlas/scratch/hjjvd/csc249/.3950074
  0 scratch   = /lustre/atlas/scratch/hjjvd/csc249/.3950074
 
 
 
 
                                NWChem Input Module
                                -------------------
 
 
                                E and Grad of 1UBQ
                                ------------------

 Scaling coordinates for geometry "geometry" by  1.889725989
 (inverse scale =  0.529177249)

 CS  symmetry detected
 
 
                             Geometry "geometry" -> ""
                             -------------------------
 
 Output coordinates in angstroms (scale by  1.889725989 to convert to a.u.)
 
  No.       Tag          Charge          X              Y              Z
 ---- ---------------- ---------- -------------- -------------- --------------
    1 O                    8.0000    -0.14232380    -0.00111119     0.00000000
    2 H                    1.0000     0.56557384     0.94797570     0.00000000
    3 H                    1.0000     0.57301659    -0.93908620     0.00000000
 
      Atomic Mass 
      ----------- 
 
      O                 15.994910
      H                  1.007825
 

 Effective nuclear repulsion energy (a.u.)       7.4446974725

            Nuclear Dipole moment (a.u.) 
            ----------------------------
        X                 Y               Z
 ---------------- ---------------- ----------------
    -0.0000000000    -0.0000000000     0.0000000000
 
      Symmetry information
      --------------------
 
 Group name             Cs        
 Group number              2
 Group order               2
 No. of unique centers     3
 
      Symmetry unique atoms
 
     1    2    3
 
 
            XYZ format geometry
            -------------------
     3
 geometry
 O                    -0.14232380    -0.00111119     0.00000000
 H                     0.56557384     0.94797570     0.00000000
 H                     0.57301659    -0.93908620     0.00000000
 
  library name resolved from: environment
  library file name is: <
 /sw/xk6/nwchem/6.6/sles11.3_pgi15.7.0/src/basis/libraries/>
  


 Summary of "631g" -> "" (spherical)
 ------------------------------------------------------------------------------
       Tag                 Description            Shells   Functions and Types
 ---------------- ------------------------------  ------  ---------------------
 *                           6-31g                    on all atoms 


                      Basis "ao basis" -> "631g" (spherical)
                      -----
  O (Oxygen)
  ----------
            Exponent  Coefficients 
       -------------- ---------------------------------------------------------
  1 S  5.48467170E+03  0.001831
  1 S  8.25234950E+02  0.013950
  1 S  1.88046960E+02  0.068445
  1 S  5.29645000E+01  0.232714
  1 S  1.68975700E+01  0.470193
  1 S  5.79963530E+00  0.358521
 
  2 S  1.55396160E+01 -0.110778
  2 S  3.59993360E+00 -0.148026
  2 S  1.01376180E+00  1.130767
 
  3 P  1.55396160E+01  0.070874
  3 P  3.59993360E+00  0.339753
  3 P  1.01376180E+00  0.727159
 
  4 S  2.70005800E-01  1.000000
 
  5 P  2.70005800E-01  1.000000
 
  H (Hydrogen)
  ------------
            Exponent  Coefficients 
       -------------- ---------------------------------------------------------
  1 S  1.87311370E+01  0.033495
  1 S  2.82539370E+00  0.234727
  1 S  6.40121700E-01  0.813757
 
  2 S  1.61277800E-01  1.000000
 


 Summary of "ao basis" -> "631g" (spherical)
 ------------------------------------------------------------------------------
       Tag                 Description            Shells   Functions and Types
 ---------------- ------------------------------  ------  ---------------------
 O                           6-31g                   5        9   3s2p
 H                           6-31g                   2        2   2s


                                 NWChem SCF Module
                                 -----------------
 
 
                                E and Grad of 1UBQ
 
 

  ao basis        = "631g"
  functions       =    13
  atoms           =     3
  closed shells   =     5
  open shells     =     0
  charge          =   0.00
  wavefunction    = RHF 
  input vectors   = atomic
  output vectors  = /lustre/atlas/scratch/hjjvd/csc249/.3950074/nwc_gbe_dat.movecs
  use symmetry    = T
  symmetry adapt  = T


 Summary of "ao basis" -> "631g" (spherical)
 ------------------------------------------------------------------------------
       Tag                 Description            Shells   Functions and Types
 ---------------- ------------------------------  ------  ---------------------
 O                           6-31g                   5        9   3s2p
 H                           6-31g                   2        2   2s


      Symmetry analysis of basis
      --------------------------
 
        a'         11
        a"          2
 

 Forming initial guess at       0.4s

 
      Superposition of Atomic Density Guess
      -------------------------------------
 
 Sum of atomic energies:         -75.75081731
 
      Non-variational initial energy
      ------------------------------

 Total energy =     -75.529079
 1-e energy   =    -118.775003
 2-e energy   =      35.801227
 HOMO         =      -0.418028
 LUMO         =       0.036634
 
 
      Symmetry analysis of molecular orbitals - initial
      -------------------------------------------------
 
  Numbering of irreducible representations: 
 
     1 a'          2 a"      
 
  Orbital symmetries:
 
     1 a'          2 a'          3 a'          4 a'          5 a"      
     6 a'          7 a'          8 a'          9 a'         10 a"      
    11 a'         12 a'         13 a'      
 

 Starting SCF solution at       0.5s



 ----------------------------------------------
         Quadratically convergent ROHF

 Convergence threshold     :          1.000E-06
 Maximum no. of iterations :          300
 Final Fock-matrix accuracy:          1.000E-10
 ----------------------------------------------


              iter       energy          gnorm     gmax       time
             ----- ------------------- --------- --------- --------
                 1      -75.8727499433  8.14D-01  4.03D-01      0.1
                 2      -75.9141865011  2.18D-01  1.38D-01      0.1
                 3      -75.9183783783  4.73D-02  3.60D-02      0.1
                 4      -75.9186807225  2.68D-04  1.53D-04      0.2
                 5      -75.9186807275  1.81D-08  9.70D-09      0.3


       Final RHF  results 
       ------------------ 

         Total SCF energy =    -75.918680727506
      One-electron energy =   -119.742138547608
      Two-electron energy =     36.378760347621
 Nuclear repulsion energy =      7.444697472481

        Time for solution =      0.2s


 
       Symmetry analysis of molecular orbitals - final
       -----------------------------------------------
 
  Numbering of irreducible representations: 
 
     1 a'          2 a"      
 
  Orbital symmetries:
 
     1 a'          2 a'          3 a'          4 a'          5 a"      
     6 a'          7 a'          8 a'          9 a'         10 a"      
    11 a'         12 a'         13 a'      
 
             Final eigenvalues
             -----------------

              1      
    1  -20.6014
    2   -1.2667
    3   -0.6051
    4   -0.5244
    5   -0.4947
    6    0.1423
    7    0.2274
    8    0.9683
    9    0.9899
   10    1.1634
   11    1.2378
   12    1.3757
   13    1.6458
 
                       ROHF Final Molecular Orbital Analysis
                       -------------------------------------
 
 Vector    2  Occ=2.000000D+00  E=-1.266710D+00  Symmetry=a'
              MO Center= -1.1D-02, -1.5D-03,  4.7D-18, r^2= 5.3D-01
   Bfn.  Coefficient  Atom+Function         Bfn.  Coefficient  Atom+Function  
  ----- ------------  ---------------      ----- ------------  ---------------
     6      0.530542  1 O  s                  2      0.485776  1 O  s          
     1     -0.218998  1 O  s          
 
 Vector    3  Occ=2.000000D+00  E=-6.051445D-01  Symmetry=a'
              MO Center=  1.2D-01, -1.2D-04,  7.6D-19, r^2= 1.0D+00
   Bfn.  Coefficient  Atom+Function         Bfn.  Coefficient  Atom+Function  
  ----- ------------  ---------------      ----- ------------  ---------------
     4      0.473874  1 O  py                 8      0.318231  1 O  py         
    12     -0.223255  3 H  s                 10      0.220946  2 H  s          
    11      0.177337  2 H  s                 13     -0.177913  3 H  s          
 
 Vector    4  Occ=2.000000D+00  E=-5.244099D-01  Symmetry=a'
              MO Center= -9.5D-02,  2.4D-03, -2.0D-17, r^2= 8.9D-01
   Bfn.  Coefficient  Atom+Function         Bfn.  Coefficient  Atom+Function  
  ----- ------------  ---------------      ----- ------------  ---------------
     3      0.526055  1 O  px                 7      0.403714  1 O  px         
     6     -0.246589  1 O  s                  2     -0.163992  1 O  s          
    10      0.151507  2 H  s          
 
 Vector    5  Occ=2.000000D+00  E=-4.946757D-01  Symmetry=a"
              MO Center= -1.4D-01, -1.1D-03,  4.8D-18, r^2= 5.9D-01
   Bfn.  Coefficient  Atom+Function         Bfn.  Coefficient  Atom+Function  
  ----- ------------  ---------------      ----- ------------  ---------------
     5      0.650479  1 O  pz                 9      0.500392  1 O  pz         
 
 Vector    6  Occ=0.000000D+00  E= 1.422675D-01  Symmetry=a'
              MO Center=  5.6D-01,  1.7D-02, -1.6D-17, r^2= 2.5D+00
   Bfn.  Coefficient  Atom+Function         Bfn.  Coefficient  Atom+Function  
  ----- ------------  ---------------      ----- ------------  ---------------
    11     -0.814357  2 H  s                  6      0.804626  1 O  s          
    13     -0.802604  3 H  s                  7      0.489746  1 O  px         
     3      0.307959  1 O  px         
 
 Vector    7  Occ=0.000000D+00  E= 2.274238D-01  Symmetry=a'
              MO Center=  5.4D-01, -1.3D-02,  7.4D-19, r^2= 2.5D+00
   Bfn.  Coefficient  Atom+Function         Bfn.  Coefficient  Atom+Function  
  ----- ------------  ---------------      ----- ------------  ---------------
    13     -0.998207  3 H  s                 11      0.980420  2 H  s          
     8     -0.721979  1 O  py                 4     -0.396050  1 O  py         
 
 Vector    8  Occ=0.000000D+00  E= 9.683123D-01  Symmetry=a'
              MO Center=  5.9D-01,  8.3D-02, -2.7D-16, r^2= 1.8D+00
   Bfn.  Coefficient  Atom+Function         Bfn.  Coefficient  Atom+Function  
  ----- ------------  ---------------      ----- ------------  ---------------
    10      0.886798  2 H  s                 12      0.815089  3 H  s          
    11     -0.781202  2 H  s                 13     -0.703403  3 H  s          
     6      0.515433  1 O  s                  3     -0.384962  1 O  px         
     2     -0.271428  1 O  s                  7      0.164248  1 O  px         
 
 Vector    9  Occ=0.000000D+00  E= 9.898702D-01  Symmetry=a'
              MO Center=  5.3D-01, -7.2D-02,  1.1D-17, r^2= 2.2D+00
   Bfn.  Coefficient  Atom+Function         Bfn.  Coefficient  Atom+Function  
  ----- ------------  ---------------      ----- ------------  ---------------
    13      0.959365  3 H  s                 12     -0.946159  3 H  s          
    11     -0.902723  2 H  s                 10      0.876887  2 H  s          
     4     -0.301630  1 O  py         
 
 Vector   10  Occ=0.000000D+00  E= 1.163418D+00  Symmetry=a"
              MO Center= -1.4D-01, -1.1D-03, -3.7D-16, r^2= 1.1D+00
   Bfn.  Coefficient  Atom+Function         Bfn.  Coefficient  Atom+Function  
  ----- ------------  ---------------      ----- ------------  ---------------
     9     -1.041947  1 O  pz                 5      0.955470  1 O  pz         
 
 Vector   11  Occ=0.000000D+00  E= 1.237769D+00  Symmetry=a'
              MO Center= -4.8D-01, -9.2D-04,  5.5D-16, r^2= 1.1D+00
   Bfn.  Coefficient  Atom+Function         Bfn.  Coefficient  Atom+Function  
  ----- ------------  ---------------      ----- ------------  ---------------
     7      1.030506  1 O  px                 3     -0.856028  1 O  px         
     2      0.545729  1 O  s                  6     -0.472106  1 O  s          
    10     -0.254857  2 H  s                 12     -0.255245  3 H  s          
 
 Vector   12  Occ=0.000000D+00  E= 1.375672D+00  Symmetry=a'
              MO Center= -2.8D-01, -2.5D-03,  8.1D-21, r^2= 1.2D+00
   Bfn.  Coefficient  Atom+Function         Bfn.  Coefficient  Atom+Function  
  ----- ------------  ---------------      ----- ------------  ---------------
     8      1.480516  1 O  py                 4     -0.975652  1 O  py         
    13      0.382493  3 H  s                 11     -0.377678  2 H  s          
    10     -0.269874  2 H  s                 12      0.267323  3 H  s          
 
 Vector   13  Occ=0.000000D+00  E= 1.645778D+00  Symmetry=a'
              MO Center=  2.5D-01,  7.0D-04,  1.1D-16, r^2= 1.1D+00
   Bfn.  Coefficient  Atom+Function         Bfn.  Coefficient  Atom+Function  
  ----- ------------  ---------------      ----- ------------  ---------------
     6      2.095129  1 O  s                  2     -1.554576  1 O  s          
     7      0.769167  1 O  px                10     -0.397399  2 H  s          
    12     -0.397760  3 H  s                 13     -0.373337  3 H  s          
    11     -0.367046  2 H  s                  3     -0.348880  1 O  px         
 

 center of mass
 --------------
 x =  -0.11845376 y =  -0.00092482 z =   0.00000000

 moments of inertia (a.u.)
 ------------------
           6.408235562136          -0.000000000000           0.000000000000
          -0.000000000000           3.237247082117           0.000000000000
           0.000000000000           0.000000000000           9.645482644253
 
  Mulliken analysis of the total density
  --------------------------------------

    Atom       Charge   Shell Charges
 -----------   ------   -------------------------------------------------------
    1 O    8     8.75   2.00  0.92  2.70  1.04  2.09
    2 H    1     0.63   0.39  0.24
    3 H    1     0.63   0.39  0.23
 
       Multipole analysis of the density wrt the origin
       ------------------------------------------------
 
     L   x y z        total         open         nuclear
     -   - - -        -----         ----         -------
     0   0 0 0     -0.000000      0.000000     10.000000
 
     1   1 0 0      1.028816      0.000000     -0.000000
     1   0 1 0      0.005517      0.000000     -0.000000
     1   0 0 1      0.000000      0.000000      0.000000
 
     2   2 0 0     -4.623489      0.000000      2.893527
     2   1 1 0     -0.005299      0.000000     -0.002487
     2   1 0 1      0.000000      0.000000      0.000000
     2   0 2 0     -2.764648      0.000000      6.358461
     2   0 1 1      0.000000      0.000000      0.000000
     2   0 0 2     -5.705920      0.000000      0.000000
 
 -----------------------
 Performance information
 -----------------------

 Timer overhead =  4.00D-07 seconds/call

               Nr. of calls         CPU time (s)                 Wall time (s)                GFlops
             ---------------    -------------------     ------------------------------   -------------------
Name         Min   Avg   Max    Min     Avg     Max     Min     Avg     Max   Mx/calls   Min     Max     Sum
scf: solv     4     4     4   0.11    0.11    0.12     0.17    0.17    0.17    4.14E-2   0.0     0.0     0.0   
scf: sear     6     6     6   4.00E-2 7.54E-2 0.10     0.10    0.10    0.10    1.67E-2   0.0     0.0     0.0   
scf: fock    16    16    16   4.80E-2 5.43E-2 6.40E-2  4.95E-2 5.46E-2 6.50E-2 4.07E-3   0.0     0.0     0.0   
scf: int-    31    31    31   4.00E-3 5.71E-3 8.00E-3  7.92E-3 7.92E-3 7.93E-3 2.56E-4   0.0     0.0     0.0   
scf: mate     9     9     9   4.00E-3 8.00E-3 1.60E-2  2.04E-2 2.04E-2 2.04E-2 2.27E-3   0.0     0.0     0.0   
scf: orth     6     6     6    0.0    5.71E-4 4.00E-3  1.42E-3 1.43E-3 1.43E-3 2.38E-4   0.0     0.0     0.0   
scf: diag     4     4     4   1.20E-2 1.60E-2 2.00E-2  2.20E-2 2.20E-2 2.20E-2 5.51E-3   0.0     0.0     0.0   
scf: veci     3     3     3    0.0    5.71E-3 1.20E-2  6.72E-3 6.72E-3 6.73E-3 2.24E-3   0.0     0.0     0.0   
scf: sym      5     5     5    0.0    6.86E-3 1.20E-2  1.20E-2 1.20E-2 1.20E-2 2.39E-3   0.0     0.0     0.0   
scf: sym     23    23    23   1.20E-2 1.83E-2 2.80E-2  2.50E-2 2.50E-2 2.50E-2 1.09E-3   0.0     0.0     0.0   
scf: k2cf     9     9     9   4.00E-3 1.37E-2 2.00E-2  2.63E-2 2.63E-2 2.63E-2 2.92E-3   0.0     0.0     0.0   
scf: mull     1     1     1    0.0    5.71E-4 4.00E-3  1.77E-3 1.79E-3 1.80E-3 1.80E-3   0.0     0.0     0.0   
scf: mult     1     1     1    0.0     0.0     0.0     3.11E-4 3.23E-4 3.32E-4 3.32E-4   0.0     0.0     0.0   
scf: moan     1     1     1    0.0    2.86E-3 4.00E-3  4.72E-3 4.84E-3 5.59E-3 5.59E-3   0.0     0.0     0.0   
scf: tota     1     1     1   0.25    0.28    0.32     0.41    0.41    0.41    0.41      0.0     0.0     0.0   

 The average no. of pstat calls per process was 1.20D+02
 with a timing overhead of 4.80D-05s


 Task  times  cpu:        0.3s     wall:        0.5s
 
 
                                NWChem Input Module
                                -------------------
 
 
 Summary of allocated global arrays
-----------------------------------
  No active global arrays



                         GA Statistics for process    0
                         ------------------------------

       create   destroy   get      put      acc     scatter   gather  read&inc
calls:  395      395     1087      606      829        0        0      151     
number of processes/call 1.43e+00 1.29e+00 1.30e+00 0.00e+00 0.00e+00
bytes total:             4.51e+05 2.82e+05 1.05e+05 0.00e+00 0.00e+00 1.21e+03
bytes remote:            4.80e+04 1.73e+04 3.03e+04 0.00e+00 0.00e+00 0.00e+00
Max memory consumed for GA by this process: 12512 bytes
 
MA_summarize_allocated_blocks: starting scan ...
MA_summarize_allocated_blocks: scan completed: 0 heap blocks, 0 stack blocks
MA usage statistics:

	allocation statistics:
					      heap	     stack
					      ----	     -----
	current number of blocks	         0	         0
	maximum number of blocks	        17	        14
	current total bytes		         0	         0
	maximum total bytes		     80104	  22509384
	maximum total K-bytes		        81	     22510
	maximum total M-bytes		         1	        23
 
 
                                     CITATION
                                     --------
                Please cite the following reference when publishing
                           results obtained with NWChem:
 
                 M. Valiev, E.J. Bylaska, N. Govind, K. Kowalski,
              T.P. Straatsma, H.J.J. van Dam, D. Wang, J. Nieplocha,
                        E. Apra, T.L. Windus, W.A. de Jong
                 "NWChem: a comprehensive and scalable open-source
                  solution for large scale molecular simulations"
                      Comput. Phys. Commun. 181, 1477 (2010)
                           doi:10.1016/j.cpc.2010.04.018
 
                                      AUTHORS
                                      -------
          E. Apra, E. J. Bylaska, W. A. de Jong, N. Govind, K. Kowalski,
       T. P. Straatsma, M. Valiev, H. J. J. van Dam, D. Wang, T. L. Windus,
        J. Hammond, J. Autschbach, K. Bhaskaran-Nair, J. Brabec, K. Lopata,
    S. A. Fischer, S. Krishnamoorthy, M. Jacquelin, W. Ma, M. Klemm, O. Villa,
      Y. Chen, V. Anisimov, F. Aquino, S. Hirata, M. T. Hackler, V. Konjkov,
            D. Mejia-Rodriguez, T. Risthaus, M. Malagoli, A. Marenich,
   A. Otero-de-la-Roza, J. Mullin, P. Nichols, R. Peverati, J. Pittner, Y. Zhao,
        P.-D. Fan, A. Fonari, M. J. Williamson, R. J. Harrison, J. R. Rehr,
      M. Dupuis, D. Silverstein, D. M. A. Smith, J. Nieplocha, V. Tipparaju,
    M. Krishnan, B. E. Van Kuiken, A. Vazquez-Mayagoitia, L. Jensen, M. Swart,
      Q. Wu, T. Van Voorhis, A. A. Auer, M. Nooijen, L. D. Crosby, E. Brown,
      G. Cisneros, G. I. Fann, H. Fruchtl, J. Garza, K. Hirao, R. A. Kendall,
      J. A. Nichols, K. Tsemekhman, K. Wolinski, J. Anchell, D. E. Bernholdt,
      P. Borowski, T. Clark, D. Clerc, H. Dachsel, M. J. O. Deegan, K. Dyall,
    D. Elwood, E. Glendening, M. Gutowski, A. C. Hess, J. Jaffe, B. G. Johnson,
     J. Ju, R. Kobayashi, R. Kutteh, Z. Lin, R. Littlefield, X. Long, B. Meng,
      T. Nakajima, S. Niu, L. Pollack, M. Rosing, K. Glaesemann, G. Sandrone,
      M. Stave, H. Taylor, G. Thomas, J. H. van Lenthe, A. T. Wong, Z. Zhang.

 Total times  cpu:        0.3s     wall:        0.9s
Application 17171739 resources: utime ~7s, stime ~3s, Rss ~66680, inblocks ~402346, outblocks ~237462
HVD: Start CCSD
total 116473
-rw------- 1 hjjvd hjjvd       253 Apr  6 08:55 h2o.pdb
-rw------- 1 hjjvd hjjvd       827 Apr  6 08:55 nwc_gbe_631g_ccsd.nw
-rw------- 1 hjjvd hjjvd       870 Apr  6 08:55 nwc_gbe_631g_ccsd_t.nw
-rw------- 1 hjjvd hjjvd       349 Apr  6 08:55 nwc_gbe_631g_rhf.nw
-rw------- 1 hjjvd hjjvd      1387 Apr  6 08:55 nwc_gbe_dat.cfock
-rw------- 1 hjjvd hjjvd    750077 Apr  6 08:55 nwc_gbe_dat.db
-rw------- 1 hjjvd hjjvd      2000 Apr  6 08:55 nwc_gbe_dat.movecs
-rwx------ 1 hjjvd hjjvd 119291415 Apr  6 08:55 nwchem
PE 0: MPICH Warning: DMAPP optimizations are not supported if libdmapp is not linked into your application. Please see the mpi man page. Disabling all requested DMAPP optimizations.
 argument  1 = nwc_gbe_631g_ccsd.nw
 


============================== echo of input deck ==============================
echo
restart nwc_gbe_dat
title "E and Grad of 1UBQ"
#memory stack 800 mb heap 100 mb global 2000 mb noverify
geometry noautoz
   load format pdb "h2o.pdb"
end
basis 631g spherical
  * library 6-31g
end

set "ao basis" 631g
charge 0
scf
  thresh 1.0e-6
  tol2e 1.0e-10
  singlet
  rhf
  maxiter 300
end
set scf:pstat t
set tce:pstat t

tce
  ccsd
  2eorb
  2emet 15
  tilesize 15
  attilesize 45
  thresh 1.0e-3
  maxiter 100
end

set tce:nts T

### tce restart ########
#
# when generating 2-electron integrals for the first time:
# uncomment "set tce:writeint T"
# in following runs please
# comment  "set tce:writeint T"
# and
# uncomment "set tce:readint T"
# it will save time :-)
#
set tce:tceiop   2048
set tce:writeint T
set tce:writet   T
#set tce:writex   T
#set tce:readint T
#######################

task tce energy
================================================================================


                                         
                                         
 
 
              Northwest Computational Chemistry Package (NWChem) 6.8
              ------------------------------------------------------
 
 
                    Environmental Molecular Sciences Laboratory
                       Pacific Northwest National Laboratory
                                Richland, WA 99352
 
                              Copyright (c) 1994-2018
                       Pacific Northwest National Laboratory
                            Battelle Memorial Institute
 
             NWChem is an open-source computational chemistry package
                        distributed under the terms of the
                      Educational Community License (ECL) 2.0
             A copy of the license is included with this distribution
                              in the LICENSE.TXT file
 
                                  ACKNOWLEDGMENT
                                  --------------

            This software and its documentation were developed at the
            EMSL at Pacific Northwest National Laboratory, a multiprogram
            national laboratory, operated for the U.S. Department of Energy
            by Battelle under Contract Number DE-AC05-76RL01830. Support
            for this work was provided by the Department of Energy Office
            of Biological and Environmental Research, Office of Basic
            Energy Sciences, and the Office of Advanced Scientific Computing.


           Job information
           ---------------

    hostname        = nid00825
    program         = /lustre/atlas/scratch/hjjvd/csc249/.3950074/nwchem
    date            = Fri Apr  6 08:55:48 2018

    compiled        = Thu_Apr_05_16:52:28_2018
    source          = /ccs/home/hjjvd/titan/nwchem
    nwchem branch   = Development
    nwchem revision = nwchem_on_git-351-g7d4a73345
    ga revision     = ga-5.6.3
    use scalapack   = T
    input           = nwc_gbe_631g_ccsd.nw
    prefix          = nwc_gbe_dat.
    data base       = /lustre/atlas/scratch/hjjvd/csc249/.3950074/nwc_gbe_dat.db
    status          = restart
    nproc           =        7
    time left       =     -1s



           Memory information
           ------------------

    heap     =    6553600 doubles =     50.0 Mbytes
    stack    =  104857597 doubles =    800.0 Mbytes
    global   =  268435456 doubles =   2048.0 Mbytes (distinct from heap & stack)
    total    =  379846653 doubles =   2898.0 Mbytes
    verify   = yes
    hardfail = no 


           Directory information
           ---------------------
 
  0 permanent = /lustre/atlas/scratch/hjjvd/csc249/.3950074
  0 scratch   = /lustre/atlas/scratch/hjjvd/csc249/.3950074
 
 
           Previous task information
           -------------------------

    Theory    = scf                             
    Operation = energy                        
    Status    = ok                            
    Qmmm      = F
    Ignore    = F

 
           Geometries in the database
           --------------------------
 
       Name                              Natoms  Last Modified
       --------------------------------  ------  ------------------------
    1  geometry                               3  Fri Apr  6 08:55:40 2018  
 
  The geometry named "geometry" is the default for restart
 
 
 
           Basis sets in the database
           --------------------------
 
       Name                              Natoms  Last Modified
        --------------------------------  ------  ------------------------
    1  631g                                   0  Fri Apr  6 08:55:40 2018  
 
  The basis set named "631g" is the default AO basis for restart
 
 
 
 
                                NWChem Input Module
                                -------------------
 
 
                                E and Grad of 1UBQ
                                ------------------

 Scaling coordinates for geometry "geometry" by  1.889725989
 (inverse scale =  0.529177249)

 CS  symmetry detected
 
 
                             Geometry "geometry" -> ""
                             -------------------------
 
 Output coordinates in angstroms (scale by  1.889725989 to convert to a.u.)
 
  No.       Tag          Charge          X              Y              Z
 ---- ---------------- ---------- -------------- -------------- --------------
    1 O                    8.0000    -0.14232380    -0.00111119     0.00000000
    2 H                    1.0000     0.56557384     0.94797570     0.00000000
    3 H                    1.0000     0.57301659    -0.93908620     0.00000000
 
      Atomic Mass 
      ----------- 
 
      O                 15.994910
      H                  1.007825
 

 Effective nuclear repulsion energy (a.u.)       7.4446974725

            Nuclear Dipole moment (a.u.) 
            ----------------------------
        X                 Y               Z
 ---------------- ---------------- ----------------
    -0.0000000000    -0.0000000000     0.0000000000
 
      Symmetry information
      --------------------
 
 Group name             Cs        
 Group number              2
 Group order               2
 No. of unique centers     3
 
      Symmetry unique atoms
 
     1    2    3
 
 
            XYZ format geometry
            -------------------
     3
 geometry
 O                    -0.14232380    -0.00111119     0.00000000
 H                     0.56557384     0.94797570     0.00000000
 H                     0.57301659    -0.93908620     0.00000000
 
  library name resolved from: environment
  library file name is: <
 /sw/xk6/nwchem/6.6/sles11.3_pgi15.7.0/src/basis/libraries/>
  


 Summary of "631g" -> "" (spherical)
 ------------------------------------------------------------------------------
       Tag                 Description            Shells   Functions and Types
 ---------------- ------------------------------  ------  ---------------------
 *                           6-31g                    on all atoms 


                      Basis "ao basis" -> "631g" (spherical)
                      -----
  O (Oxygen)
  ----------
            Exponent  Coefficients 
       -------------- ---------------------------------------------------------
  1 S  5.48467170E+03  0.001831
  1 S  8.25234950E+02  0.013950
  1 S  1.88046960E+02  0.068445
  1 S  5.29645000E+01  0.232714
  1 S  1.68975700E+01  0.470193
  1 S  5.79963530E+00  0.358521
 
  2 S  1.55396160E+01 -0.110778
  2 S  3.59993360E+00 -0.148026
  2 S  1.01376180E+00  1.130767
 
  3 P  1.55396160E+01  0.070874
  3 P  3.59993360E+00  0.339753
  3 P  1.01376180E+00  0.727159
 
  4 S  2.70005800E-01  1.000000
 
  5 P  2.70005800E-01  1.000000
 
  H (Hydrogen)
  ------------
            Exponent  Coefficients 
       -------------- ---------------------------------------------------------
  1 S  1.87311370E+01  0.033495
  1 S  2.82539370E+00  0.234727
  1 S  6.40121700E-01  0.813757
 
  2 S  1.61277800E-01  1.000000
 


 Summary of "ao basis" -> "631g" (spherical)
 ------------------------------------------------------------------------------
       Tag                 Description            Shells   Functions and Types
 ---------------- ------------------------------  ------  ---------------------
 O                           6-31g                   5        9   3s2p
 H                           6-31g                   2        2   2s


                                 NWChem SCF Module
                                 -----------------
 
 
                                E and Grad of 1UBQ
 
 

  ao basis        = "631g"
  functions       =    13
  atoms           =     3
  closed shells   =     5
  open shells     =     0
  charge          =   0.00
  wavefunction    = RHF 
  input vectors   = /lustre/atlas/scratch/hjjvd/csc249/.3950074/nwc_gbe_dat.movecs
  output vectors  = /lustre/atlas/scratch/hjjvd/csc249/.3950074/nwc_gbe_dat.movecs
  use symmetry    = T
  symmetry adapt  = T


 Summary of "ao basis" -> "631g" (spherical)
 ------------------------------------------------------------------------------
       Tag                 Description            Shells   Functions and Types
 ---------------- ------------------------------  ------  ---------------------
 O                           6-31g                   5        9   3s2p
 H                           6-31g                   2        2   2s


      Symmetry analysis of basis
      --------------------------
 
        a'         11
        a"          2
 

 Forming initial guess at       0.2s


 Loading old vectors from job with title :

E and Grad of 1UBQ

 
      Symmetry analysis of molecular orbitals - initial
      -------------------------------------------------
 
  Numbering of irreducible representations: 
 
     1 a'          2 a"      
 
  Orbital symmetries:
 
     1 a'          2 a'          3 a'          4 a'          5 a"      
     6 a'          7 a'          8 a'          9 a'         10 a"      
    11 a'         12 a'         13 a'      
 

 Starting SCF solution at       0.2s



 ----------------------------------------------
         Quadratically convergent ROHF

 Convergence threshold     :          1.000E-06
 Maximum no. of iterations :          300
 Final Fock-matrix accuracy:          1.000E-10
 ----------------------------------------------


              iter       energy          gnorm     gmax       time
             ----- ------------------- --------- --------- --------
                 1      -75.9186807275  1.81D-08  9.70D-09      0.0


       Final RHF  results 
       ------------------ 

         Total SCF energy =    -75.918680727505
      One-electron energy =   -119.742138547608
      Two-electron energy =     36.378760347621
 Nuclear repulsion energy =      7.444697472481

        Time for solution =      0.0s


 
       Symmetry analysis of molecular orbitals - final
       -----------------------------------------------
 
  Numbering of irreducible representations: 
 
     1 a'          2 a"      
 
  Orbital symmetries:
 
     1 a'          2 a'          3 a'          4 a'          5 a"      
     6 a'          7 a'          8 a'          9 a'         10 a"      
    11 a'         12 a'         13 a'      
 
             Final eigenvalues
             -----------------

              1      
    1  -20.6014
    2   -1.2667
    3   -0.6051
    4   -0.5244
    5   -0.4947
    6    0.1423
    7    0.2274
    8    0.9683
    9    0.9899
   10    1.1634
   11    1.2378
   12    1.3757
   13    1.6458
 
                       ROHF Final Molecular Orbital Analysis
                       -------------------------------------
 
 Vector    2  Occ=2.000000D+00  E=-1.266710D+00  Symmetry=a'
              MO Center= -1.1D-02, -1.5D-03,  4.7D-18, r^2= 5.3D-01
   Bfn.  Coefficient  Atom+Function         Bfn.  Coefficient  Atom+Function  
  ----- ------------  ---------------      ----- ------------  ---------------
     6      0.530542  1 O  s                  2      0.485776  1 O  s          
     1     -0.218998  1 O  s          
 
 Vector    3  Occ=2.000000D+00  E=-6.051445D-01  Symmetry=a'
              MO Center=  1.2D-01, -1.2D-04,  7.6D-19, r^2= 1.0D+00
   Bfn.  Coefficient  Atom+Function         Bfn.  Coefficient  Atom+Function  
  ----- ------------  ---------------      ----- ------------  ---------------
     4      0.473874  1 O  py                 8      0.318231  1 O  py         
    12     -0.223255  3 H  s                 10      0.220946  2 H  s          
    11      0.177337  2 H  s                 13     -0.177913  3 H  s          
 
 Vector    4  Occ=2.000000D+00  E=-5.244099D-01  Symmetry=a'
              MO Center= -9.5D-02,  2.4D-03, -2.0D-17, r^2= 8.9D-01
   Bfn.  Coefficient  Atom+Function         Bfn.  Coefficient  Atom+Function  
  ----- ------------  ---------------      ----- ------------  ---------------
     3      0.526055  1 O  px                 7      0.403714  1 O  px         
     6     -0.246589  1 O  s                  2     -0.163992  1 O  s          
    10      0.151507  2 H  s          
 
 Vector    5  Occ=2.000000D+00  E=-4.946757D-01  Symmetry=a"
              MO Center= -1.4D-01, -1.1D-03,  4.8D-18, r^2= 5.9D-01
   Bfn.  Coefficient  Atom+Function         Bfn.  Coefficient  Atom+Function  
  ----- ------------  ---------------      ----- ------------  ---------------
     5      0.650479  1 O  pz                 9      0.500392  1 O  pz         
 
 Vector    6  Occ=0.000000D+00  E= 1.422675D-01  Symmetry=a'
              MO Center=  5.6D-01,  1.7D-02, -1.6D-17, r^2= 2.5D+00
   Bfn.  Coefficient  Atom+Function         Bfn.  Coefficient  Atom+Function  
  ----- ------------  ---------------      ----- ------------  ---------------
    11     -0.814357  2 H  s                  6      0.804626  1 O  s          
    13     -0.802604  3 H  s                  7      0.489746  1 O  px         
     3      0.307959  1 O  px         
 
 Vector    7  Occ=0.000000D+00  E= 2.274238D-01  Symmetry=a'
              MO Center=  5.4D-01, -1.3D-02,  7.4D-19, r^2= 2.5D+00
   Bfn.  Coefficient  Atom+Function         Bfn.  Coefficient  Atom+Function  
  ----- ------------  ---------------      ----- ------------  ---------------
    13     -0.998207  3 H  s                 11      0.980420  2 H  s          
     8     -0.721979  1 O  py                 4     -0.396050  1 O  py         
 
 Vector    8  Occ=0.000000D+00  E= 9.683123D-01  Symmetry=a'
              MO Center=  5.9D-01,  8.3D-02, -2.7D-16, r^2= 1.8D+00
   Bfn.  Coefficient  Atom+Function         Bfn.  Coefficient  Atom+Function  
  ----- ------------  ---------------      ----- ------------  ---------------
    10      0.886798  2 H  s                 12      0.815089  3 H  s          
    11     -0.781202  2 H  s                 13     -0.703403  3 H  s          
     6      0.515433  1 O  s                  3     -0.384962  1 O  px         
     2     -0.271428  1 O  s                  7      0.164248  1 O  px         
 
 Vector    9  Occ=0.000000D+00  E= 9.898702D-01  Symmetry=a'
              MO Center=  5.3D-01, -7.2D-02,  1.1D-17, r^2= 2.2D+00
   Bfn.  Coefficient  Atom+Function         Bfn.  Coefficient  Atom+Function  
  ----- ------------  ---------------      ----- ------------  ---------------
    13      0.959365  3 H  s                 12     -0.946159  3 H  s          
    11     -0.902723  2 H  s                 10      0.876887  2 H  s          
     4     -0.301630  1 O  py         
 
 Vector   10  Occ=0.000000D+00  E= 1.163418D+00  Symmetry=a"
              MO Center= -1.4D-01, -1.1D-03, -3.7D-16, r^2= 1.1D+00
   Bfn.  Coefficient  Atom+Function         Bfn.  Coefficient  Atom+Function  
  ----- ------------  ---------------      ----- ------------  ---------------
     9     -1.041947  1 O  pz                 5      0.955470  1 O  pz         
 
 Vector   11  Occ=0.000000D+00  E= 1.237769D+00  Symmetry=a'
              MO Center= -4.8D-01, -9.2D-04,  5.5D-16, r^2= 1.1D+00
   Bfn.  Coefficient  Atom+Function         Bfn.  Coefficient  Atom+Function  
  ----- ------------  ---------------      ----- ------------  ---------------
     7      1.030506  1 O  px                 3     -0.856028  1 O  px         
     2      0.545729  1 O  s                  6     -0.472106  1 O  s          
    10     -0.254857  2 H  s                 12     -0.255245  3 H  s          
 
 Vector   12  Occ=0.000000D+00  E= 1.375672D+00  Symmetry=a'
              MO Center= -2.8D-01, -2.5D-03,  8.1D-21, r^2= 1.2D+00
   Bfn.  Coefficient  Atom+Function         Bfn.  Coefficient  Atom+Function  
  ----- ------------  ---------------      ----- ------------  ---------------
     8      1.480516  1 O  py                 4     -0.975652  1 O  py         
    13      0.382493  3 H  s                 11     -0.377678  2 H  s          
    10     -0.269874  2 H  s                 12      0.267323  3 H  s          
 
 Vector   13  Occ=0.000000D+00  E= 1.645778D+00  Symmetry=a'
              MO Center=  2.5D-01,  7.0D-04,  1.1D-16, r^2= 1.1D+00
   Bfn.  Coefficient  Atom+Function         Bfn.  Coefficient  Atom+Function  
  ----- ------------  ---------------      ----- ------------  ---------------
     6      2.095129  1 O  s                  2     -1.554576  1 O  s          
     7      0.769167  1 O  px                10     -0.397399  2 H  s          
    12     -0.397760  3 H  s                 13     -0.373337  3 H  s          
    11     -0.367046  2 H  s                  3     -0.348880  1 O  px         
 

 center of mass
 --------------
 x =  -0.11845376 y =  -0.00092482 z =   0.00000000

 moments of inertia (a.u.)
 ------------------
           6.408235562136          -0.000000000000           0.000000000000
          -0.000000000000           3.237247082117           0.000000000000
           0.000000000000           0.000000000000           9.645482644253
 
  Mulliken analysis of the total density
  --------------------------------------

    Atom       Charge   Shell Charges
 -----------   ------   -------------------------------------------------------
    1 O    8     8.75   2.00  0.92  2.70  1.04  2.09
    2 H    1     0.63   0.39  0.24
    3 H    1     0.63   0.39  0.23
 
       Multipole analysis of the density wrt the origin
       ------------------------------------------------
 
     L   x y z        total         open         nuclear
     -   - - -        -----         ----         -------
     0   0 0 0     -0.000000      0.000000     10.000000
 
     1   1 0 0      1.028816      0.000000     -0.000000
     1   0 1 0      0.005517      0.000000     -0.000000
     1   0 0 1      0.000000      0.000000      0.000000
 
     2   2 0 0     -4.623489      0.000000      2.893527
     2   1 1 0     -0.005299      0.000000     -0.002487
     2   1 0 1      0.000000      0.000000      0.000000
     2   0 2 0     -2.764648      0.000000      6.358461
     2   0 1 1      0.000000      0.000000      0.000000
     2   0 0 2     -5.705920      0.000000      0.000000
 
 -----------------------
 Performance information
 -----------------------

 Timer overhead =  4.00D-07 seconds/call

               Nr. of calls         CPU time (s)                 Wall time (s)                GFlops
             ---------------    -------------------     ------------------------------   -------------------
Name         Min   Avg   Max    Min     Avg     Max     Min     Avg     Max   Mx/calls   Min     Max     Sum
scf: sear     1     1     1   4.00E-3 2.63E-2 3.60E-2  3.27E-2 3.27E-2 3.27E-2 3.27E-2   0.0     0.0     0.0   
scf: fock     1     1     1    0.0    2.86E-3 4.00E-3  3.24E-3 3.59E-3 4.55E-3 4.55E-3   0.0     0.0     0.0   
scf: int-    14    14    14    0.0    6.29E-3 8.00E-3  7.60E-3 7.60E-3 7.61E-3 5.43E-4   0.0     0.0     0.0   
scf: orth     4     4     4    0.0    5.71E-4 4.00E-3  1.12E-3 1.12E-3 1.13E-3 2.81E-4   0.0     0.0     0.0   
scf: diag     1     1     1    0.0    4.00E-3 8.00E-3  7.52E-3 7.52E-3 7.52E-3 7.52E-3   0.0     0.0     0.0   
scf: veci     5     5     5    0.0    4.00E-3 8.00E-3  7.82E-3 7.84E-3 7.86E-3 1.57E-3   0.0     0.0     0.0   
scf: sym      3     3     3    0.0    5.14E-3 1.20E-2  7.38E-3 7.38E-3 7.39E-3 2.46E-3   0.0     0.0     0.0   
scf: sym      2     2     2    0.0    1.14E-3 4.00E-3  2.62E-3 2.62E-3 2.62E-3 1.31E-3   0.0     0.0     0.0   
scf: mull     1     1     1    0.0     0.0     0.0     1.69E-3 1.74E-3 1.75E-3 1.75E-3   0.0     0.0     0.0   
scf: mult     1     1     1    0.0     0.0     0.0     3.03E-4 3.09E-4 3.14E-4 3.14E-4   0.0     0.0     0.0   
scf: moan     1     1     1    0.0    1.71E-3 4.00E-3  4.58E-3 4.72E-3 5.55E-3 5.55E-3   0.0     0.0     0.0   
scf: tota     1     1     1   3.20E-2 7.14E-2 8.80E-2  0.10    0.10    0.10    0.10      0.0     0.0     0.0   

 The average no. of pstat calls per process was 3.50D+01
 with a timing overhead of 1.40D-05s

                   NWChem Extensible Many-Electron Theory Module
                   ---------------------------------------------
 
              ======================================================
                   This portion of the program was automatically
                  generated by a Tensor Contraction Engine (TCE).
                  The development of this portion of the program
                 and TCE was supported by US Department of Energy,
                Office of Science, Office of Basic Energy Science.
                      TCE is a product of Battelle and PNNL.
              Please cite: S.Hirata, J.Phys.Chem.A 107, 9887 (2003).
              ======================================================
 
                                E and Grad of 1UBQ
 
 
            General Information
            -------------------
      Number of processors :     7
         Wavefunction type : Restricted Hartree-Fock
          No. of electrons :    10
           Alpha electrons :     5
            Beta electrons :     5
           No. of orbitals :    26
            Alpha orbitals :    13
             Beta orbitals :    13
        Alpha frozen cores :     0
         Beta frozen cores :     0
     Alpha frozen virtuals :     0
      Beta frozen virtuals :     0
         Spin multiplicity : singlet 
    Number of AO functions :    13
       Number of AO shells :     9
        Use of symmetry is : on 
      Symmetry adaption is : on 
         Schwarz screening : 0.10D-09
 
          Correlation Information
          -----------------------
          Calculation type : Coupled-cluster singles & doubles                           
   Perturbative correction : none                                                        
            Max iterations :      100
        Residual threshold : 0.10D-02
     T(0) DIIS level shift : 0.00D+00
     L(0) DIIS level shift : 0.00D+00
     T(1) DIIS level shift : 0.00D+00
     L(1) DIIS level shift : 0.00D+00
     T(R) DIIS level shift : 0.00D+00
     T(I) DIIS level shift : 0.00D+00
   CC-T/L Amplitude update :  5-th order DIIS
                I/O scheme : Global Array Library
        L-threshold :  0.10D-02
        EOM-threshold :  0.10D-02
 no EOMCCSD initial starts read in
 TCE RESTART OPTIONS
 READ_INT:    F
 WRITE_INT:   T
 READ_TA:     F
 WRITE_TA:    T
 READ_XA:     F
 WRITE_XA:    F
 READ_IN3:    F
 WRITE_IN3:   F
 SLICE:       F
 D4D5:        F
 
            Memory Information
            ------------------
          Available GA space size is    1879048023 doubles
          Available MA space size is     111410012 doubles
 
 Maximum block size supplied by input
 Maximum block size        15 doubles

 tile_dim =      7

 Block   Spin    Irrep     Size     Offset   Alpha
 -------------------------------------------------
   1    alpha     a'     4 doubles       0       1
   2    alpha     a"     1 doubles       4       2
   3    beta      a'     4 doubles       5       1
   4    beta      a"     1 doubles       9       2
   5    alpha     a'     7 doubles      10       5
   6    alpha     a"     1 doubles      17       6
   7    beta      a'     7 doubles      18       5
   8    beta      a"     1 doubles      25       6

 Global array virtual files algorithm will be used

 Parallel file system coherency ......... OK
 size_1e                      125
  0 ga offset                   0 size_xx_perproc                  31mx    4
 WRITE TENSOR
  total size:               125
  2 ga offset                  62 size_xx_perproc                  31mx    4
  filename: /lustre/atlas/scratch/hjjvd/csc249/.3950074/nwc_gbe_dat.f1int.000000            
  3 ga offset                  93 size_xx_perproc                  32mx    4
  unit nr:       77
  1 ga offset                  31 size_xx_perproc                  31mx    4
  file size:             31
  rec_mem (KB):     2048
  rec_size:         262144
  number of tasks:            1
 
 Fock matrix recomputed
 1-e file size   =              125
 1-e file name   = /lustre/atlas/scratch/hjjvd/csc249/.3950074/nwc_gbe_dat.f1int.000000
 Cpu & wall time / sec            0.0            0.0
 4-electron integrals stored in orbital form
 
 v2    file size   =             6637
 4-index algorithm nr.  15 is used
 imaxsize =       45
 imaxsize ichop =        0
 starting step 1 at                 0.38 secs 
 starting step 2 at                 0.48 secs 
 starting step 3 at                 0.48 secs 
 starting step 4 at                 0.48 secs 
 done step 4 at                 0.48 secs 
  3 ga offset                4977 size_xx_perproc                1660mx    4
  2 ga offset                3318 size_xx_perproc                1659mx    4
  0 ga offset                   0 size_xx_perproc                1659mx    4
  1 ga offset                1659 size_xx_perproc                1659mx    4
 WRITE TENSOR
  total size:              6637
  filename: /lustre/atlas/scratch/hjjvd/csc249/.3950074/nwc_gbe_dat.v2int.000000            
  unit nr:      178
  file size:           1659
  rec_mem (KB):     2048
  rec_size:         262144
  number of tasks:            1
 Cpu & wall time / sec            0.1            0.1
 T1-number-of-tasks                        2
 
 t1 file size   =               29
 t1 file name   = /lustre/atlas/scratch/hjjvd/csc249/.3950074/nwc_gbe_dat.t1
 t1 file handle =       -998
 T2-number-of-boxes                       13
 
 t2 file size   =             1840
 t2 file name   = /lustre/atlas/scratch/hjjvd/csc249/.3950074/nwc_gbe_dat.t2
 t2 file handle =       -996
CCSD iterations
 ---------------------------------------------------------
 Iter          Residuum       Correlation     Cpu    Wall 
 ---------------------------------------------------------
NEW TASK SCHEDULING
CCSD_T1_NTS --- OK
CCSD_T2_NTS --- OK
    1   0.1016950926409  -0.1497280304951     0.0     0.0
    2   0.0393396392470  -0.1508983084800     0.0     0.0
    3   0.0176406208866  -0.1551450008425     0.0     0.0
    4   0.0085636599060  -0.1565720205902     0.0     0.0
    5   0.0043017431784  -0.1572769756245     0.0     0.0
 MICROCYCLE DIIS UPDATE:                        5                        5
    6   0.0005423791927  -0.1579140236604     0.0     0.1
 -----------------------------------------------------------------
 Iterations converged
 CCSD correlation energy / hartree =        -0.157914023660370
 CCSD total energy / hartree       =       -76.076594751165857

 Singles contributions

 Doubles contributions
  0 ga offset                   0 size_xx_perproc                   7mx    4
  1 ga offset                   7 size_xx_perproc                   7mx    4
  3 ga offset                  21 size_xx_perproc                   8mx    4
  2 ga offset                  14 size_xx_perproc                   7mx    4
 WRITE TENSOR
  total size:                29
  filename: /lustre/atlas/scratch/hjjvd/csc249/.3950074/nwc_gbe_dat.t1amp.000000            
  unit nr:       79
  file size:              7
  rec_mem (KB):     2048
  rec_size:         262144
  number of tasks:            1
  0 ga offset                   0 size_xx_perproc                 460mx    4
  1 ga offset                 460 size_xx_perproc                 460mx    4
  2 ga offset                 920 size_xx_perproc                 460mx    4
  3 ga offset                1380 size_xx_perproc                 460mx    4
 WRITE TENSOR
  total size:              1840
  filename: /lustre/atlas/scratch/hjjvd/csc249/.3950074/nwc_gbe_dat.t2amp.000000            
  unit nr:       80
  file size:            460
  rec_mem (KB):     2048
  rec_size:         262144
  number of tasks:            1

 Task  times  cpu:        0.4s     wall:        0.7s
 
 
                                NWChem Input Module
                                -------------------
 
 
 Summary of allocated global arrays
-----------------------------------
  No active global arrays



                         GA Statistics for process    0
                         ------------------------------

       create   destroy   get      put      acc     scatter   gather  read&inc
calls:  382      382     2504      315      900        0        0     1572     
number of processes/call 1.42e+00 1.49e+00 1.58e+00 0.00e+00 0.00e+00
bytes total:             2.60e+06 2.81e+05 6.69e+05 0.00e+00 0.00e+00 1.26e+04
bytes remote:            1.98e+06 2.67e+04 5.61e+05 0.00e+00 0.00e+00 7.99e+03
Max memory consumed for GA by this process: 360224 bytes
 
MA_summarize_allocated_blocks: starting scan ...
MA_summarize_allocated_blocks: scan completed: 0 heap blocks, 0 stack blocks
MA usage statistics:

	allocation statistics:
					      heap	     stack
					      ----	     -----
	current number of blocks	         0	         0
	maximum number of blocks	        17	        42
	current total bytes		         0	         0
	maximum total bytes		     80104	   8152072
	maximum total K-bytes		        81	      8153
	maximum total M-bytes		         1	         9
 
 
                                     CITATION
                                     --------
                Please cite the following reference when publishing
                           results obtained with NWChem:
 
                 M. Valiev, E.J. Bylaska, N. Govind, K. Kowalski,
              T.P. Straatsma, H.J.J. van Dam, D. Wang, J. Nieplocha,
                        E. Apra, T.L. Windus, W.A. de Jong
                 "NWChem: a comprehensive and scalable open-source
                  solution for large scale molecular simulations"
                      Comput. Phys. Commun. 181, 1477 (2010)
                           doi:10.1016/j.cpc.2010.04.018
 
                                      AUTHORS
                                      -------
          E. Apra, E. J. Bylaska, W. A. de Jong, N. Govind, K. Kowalski,
       T. P. Straatsma, M. Valiev, H. J. J. van Dam, D. Wang, T. L. Windus,
        J. Hammond, J. Autschbach, K. Bhaskaran-Nair, J. Brabec, K. Lopata,
    S. A. Fischer, S. Krishnamoorthy, M. Jacquelin, W. Ma, M. Klemm, O. Villa,
      Y. Chen, V. Anisimov, F. Aquino, S. Hirata, M. T. Hackler, V. Konjkov,
            D. Mejia-Rodriguez, T. Risthaus, M. Malagoli, A. Marenich,
   A. Otero-de-la-Roza, J. Mullin, P. Nichols, R. Peverati, J. Pittner, Y. Zhao,
        P.-D. Fan, A. Fonari, M. J. Williamson, R. J. Harrison, J. R. Rehr,
      M. Dupuis, D. Silverstein, D. M. A. Smith, J. Nieplocha, V. Tipparaju,
    M. Krishnan, B. E. Van Kuiken, A. Vazquez-Mayagoitia, L. Jensen, M. Swart,
      Q. Wu, T. Van Voorhis, A. A. Auer, M. Nooijen, L. D. Crosby, E. Brown,
      G. Cisneros, G. I. Fann, H. Fruchtl, J. Garza, K. Hirao, R. A. Kendall,
      J. A. Nichols, K. Tsemekhman, K. Wolinski, J. Anchell, D. E. Bernholdt,
      P. Borowski, T. Clark, D. Clerc, H. Dachsel, M. J. O. Deegan, K. Dyall,
    D. Elwood, E. Glendening, M. Gutowski, A. C. Hess, J. Jaffe, B. G. Johnson,
     J. Ju, R. Kobayashi, R. Kutteh, Z. Lin, R. Littlefield, X. Long, B. Meng,
      T. Nakajima, S. Niu, L. Pollack, M. Rosing, K. Glaesemann, G. Sandrone,
      M. Stave, H. Taylor, G. Thomas, J. H. van Lenthe, A. T. Wong, Z. Zhang.

 Total times  cpu:        0.4s     wall:        1.0s
Application 17171740 resources: utime ~8s, stime ~3s, Rss ~47916, inblocks ~1212257, outblocks ~237654
HVD: Start CCSD(T)
total 116597
-rw------- 1 hjjvd hjjvd       253 Apr  6 08:55 h2o.pdb
-rw------- 1 hjjvd hjjvd       827 Apr  6 08:55 nwc_gbe_631g_ccsd.nw
-rw------- 1 hjjvd hjjvd       870 Apr  6 08:55 nwc_gbe_631g_ccsd_t.nw
-rw------- 1 hjjvd hjjvd       349 Apr  6 08:55 nwc_gbe_631g_rhf.nw
-rw------- 1 hjjvd hjjvd      1387 Apr  6 08:55 nwc_gbe_dat.cfock
-rw------- 1 hjjvd hjjvd    759271 Apr  6 08:55 nwc_gbe_dat.db
-rw------- 1 hjjvd hjjvd       264 Apr  6 08:55 nwc_gbe_dat.f1int.000000
-rw------- 1 hjjvd hjjvd       264 Apr  6 08:55 nwc_gbe_dat.f1int.000001
-rw------- 1 hjjvd hjjvd       264 Apr  6 08:55 nwc_gbe_dat.f1int.000002
-rw------- 1 hjjvd hjjvd       272 Apr  6 08:55 nwc_gbe_dat.f1int.000003
-rw------- 1 hjjvd hjjvd      2000 Apr  6 08:55 nwc_gbe_dat.movecs
-rw------- 1 hjjvd hjjvd        72 Apr  6 08:55 nwc_gbe_dat.t1amp.000000
-rw------- 1 hjjvd hjjvd        72 Apr  6 08:55 nwc_gbe_dat.t1amp.000001
-rw------- 1 hjjvd hjjvd        72 Apr  6 08:55 nwc_gbe_dat.t1amp.000002
-rw------- 1 hjjvd hjjvd        80 Apr  6 08:55 nwc_gbe_dat.t1amp.000003
-rw------- 1 hjjvd hjjvd      3696 Apr  6 08:55 nwc_gbe_dat.t2amp.000000
-rw------- 1 hjjvd hjjvd      3696 Apr  6 08:55 nwc_gbe_dat.t2amp.000001
-rw------- 1 hjjvd hjjvd      3696 Apr  6 08:55 nwc_gbe_dat.t2amp.000002
-rw------- 1 hjjvd hjjvd      3696 Apr  6 08:55 nwc_gbe_dat.t2amp.000003
-rw------- 1 hjjvd hjjvd     13288 Apr  6 08:55 nwc_gbe_dat.v2int.000000
-rw------- 1 hjjvd hjjvd     13288 Apr  6 08:55 nwc_gbe_dat.v2int.000001
-rw------- 1 hjjvd hjjvd     13288 Apr  6 08:55 nwc_gbe_dat.v2int.000002
-rw------- 1 hjjvd hjjvd     13296 Apr  6 08:55 nwc_gbe_dat.v2int.000003
-rwx------ 1 hjjvd hjjvd 119291415 Apr  6 08:55 nwchem
PE 0: MPICH Warning: DMAPP optimizations are not supported if libdmapp is not linked into your application. Please see the mpi man page. Disabling all requested DMAPP optimizations.
 argument  1 = nwc_gbe_631g_ccsd_t.nw
 


============================== echo of input deck ==============================
echo
restart nwc_gbe_dat
title "E and Grad of 1UBQ"
#memory stack 800 mb heap 100 mb global 2000 mb noverify
geometry noautoz
   load format pdb "h2o.pdb"
end
basis 631g spherical
  * library 6-31g
end

set "ao basis" 631g
charge +0
scf
  thresh 1.0e-6
  tol2e 1.0e-10
  singlet
  rhf
  maxiter 300
end
set scf:pstat t
set tce:pstat t

tce
  ccsd(t)
  2eorb
  2emet 15
  tilesize 15
  attilesize 45
  thresh 1.0e-3
  maxiter 100
end

set tce:nts T

### tce restart ########
#
# when generating 2-electron integrals for the first time:
# uncomment "set tce:writeint T"
# in following runs please
# comment  "set tce:writeint T"
# and
# uncomment "set tce:readint T"
# it will save time :-)
#
set tce:tceiop   2048
set tce:writeint F
set tce:writet   F
#set tce:writex   F
set tce:readint  T
set tce:readt    T
#set tce:readx    T
#######################

task tce energy
================================================================================


                                         
                                         
 
 
              Northwest Computational Chemistry Package (NWChem) 6.8
              ------------------------------------------------------
 
 
                    Environmental Molecular Sciences Laboratory
                       Pacific Northwest National Laboratory
                                Richland, WA 99352
 
                              Copyright (c) 1994-2018
                       Pacific Northwest National Laboratory
                            Battelle Memorial Institute
 
             NWChem is an open-source computational chemistry package
                        distributed under the terms of the
                      Educational Community License (ECL) 2.0
             A copy of the license is included with this distribution
                              in the LICENSE.TXT file
 
                                  ACKNOWLEDGMENT
                                  --------------

            This software and its documentation were developed at the
            EMSL at Pacific Northwest National Laboratory, a multiprogram
            national laboratory, operated for the U.S. Department of Energy
            by Battelle under Contract Number DE-AC05-76RL01830. Support
            for this work was provided by the Department of Energy Office
            of Biological and Environmental Research, Office of Basic
            Energy Sciences, and the Office of Advanced Scientific Computing.


           Job information
           ---------------

    hostname        = nid00825
    program         = /lustre/atlas/scratch/hjjvd/csc249/.3950074/nwchem
    date            = Fri Apr  6 08:55:58 2018

    compiled        = Thu_Apr_05_16:52:28_2018
    source          = /ccs/home/hjjvd/titan/nwchem
    nwchem branch   = Development
    nwchem revision = nwchem_on_git-351-g7d4a73345
    ga revision     = ga-5.6.3
    use scalapack   = T
    input           = nwc_gbe_631g_ccsd_t.nw
    prefix          = nwc_gbe_dat.
    data base       = /lustre/atlas/scratch/hjjvd/csc249/.3950074/nwc_gbe_dat.db
    status          = restart
    nproc           =       15
    time left       =     -1s



           Memory information
           ------------------

    heap     =    6553598 doubles =     50.0 Mbytes
    stack    =  104857595 doubles =    800.0 Mbytes
    global   =  268435456 doubles =   2048.0 Mbytes (distinct from heap & stack)
    total    =  379846649 doubles =   2898.0 Mbytes
    verify   = yes
    hardfail = no 


           Directory information
           ---------------------
 
  0 permanent = /lustre/atlas/scratch/hjjvd/csc249/.3950074
  0 scratch   = /lustre/atlas/scratch/hjjvd/csc249/.3950074
 
 
           Previous task information
           -------------------------

    Theory    = tce                             
    Operation = energy                        
    Status    = ok                            
    Qmmm      = F
    Ignore    = F

 
           Geometries in the database
           --------------------------
 
       Name                              Natoms  Last Modified
       --------------------------------  ------  ------------------------
    1  geometry                               3  Fri Apr  6 08:55:49 2018  
 
  The geometry named "geometry" is the default for restart
 
 
 
           Basis sets in the database
           --------------------------
 
       Name                              Natoms  Last Modified
        --------------------------------  ------  ------------------------
    1  631g                                   0  Fri Apr  6 08:55:49 2018  
 
  The basis set named "631g" is the default AO basis for restart
 
 
 
 
                                NWChem Input Module
                                -------------------
 
 
                                E and Grad of 1UBQ
                                ------------------

 Scaling coordinates for geometry "geometry" by  1.889725989
 (inverse scale =  0.529177249)

 CS  symmetry detected
 
 
                             Geometry "geometry" -> ""
                             -------------------------
 
 Output coordinates in angstroms (scale by  1.889725989 to convert to a.u.)
 
  No.       Tag          Charge          X              Y              Z
 ---- ---------------- ---------- -------------- -------------- --------------
    1 O                    8.0000    -0.14232380    -0.00111119     0.00000000
    2 H                    1.0000     0.56557384     0.94797570     0.00000000
    3 H                    1.0000     0.57301659    -0.93908620     0.00000000
 
      Atomic Mass 
      ----------- 
 
      O                 15.994910
      H                  1.007825
 

 Effective nuclear repulsion energy (a.u.)       7.4446974725

            Nuclear Dipole moment (a.u.) 
            ----------------------------
        X                 Y               Z
 ---------------- ---------------- ----------------
    -0.0000000000    -0.0000000000     0.0000000000
 
      Symmetry information
      --------------------
 
 Group name             Cs        
 Group number              2
 Group order               2
 No. of unique centers     3
 
      Symmetry unique atoms
 
     1    2    3
 
 
            XYZ format geometry
            -------------------
     3
 geometry
 O                    -0.14232380    -0.00111119     0.00000000
 H                     0.56557384     0.94797570     0.00000000
 H                     0.57301659    -0.93908620     0.00000000
 
  library name resolved from: environment
  library file name is: <
 /sw/xk6/nwchem/6.6/sles11.3_pgi15.7.0/src/basis/libraries/>
  


 Summary of "631g" -> "" (spherical)
 ------------------------------------------------------------------------------
       Tag                 Description            Shells   Functions and Types
 ---------------- ------------------------------  ------  ---------------------
 *                           6-31g                    on all atoms 


                      Basis "ao basis" -> "631g" (spherical)
                      -----
  O (Oxygen)
  ----------
            Exponent  Coefficients 
       -------------- ---------------------------------------------------------
  1 S  5.48467170E+03  0.001831
  1 S  8.25234950E+02  0.013950
  1 S  1.88046960E+02  0.068445
  1 S  5.29645000E+01  0.232714
  1 S  1.68975700E+01  0.470193
  1 S  5.79963530E+00  0.358521
 
  2 S  1.55396160E+01 -0.110778
  2 S  3.59993360E+00 -0.148026
  2 S  1.01376180E+00  1.130767
 
  3 P  1.55396160E+01  0.070874
  3 P  3.59993360E+00  0.339753
  3 P  1.01376180E+00  0.727159
 
  4 S  2.70005800E-01  1.000000
 
  5 P  2.70005800E-01  1.000000
 
  H (Hydrogen)
  ------------
            Exponent  Coefficients 
       -------------- ---------------------------------------------------------
  1 S  1.87311370E+01  0.033495
  1 S  2.82539370E+00  0.234727
  1 S  6.40121700E-01  0.813757
 
  2 S  1.61277800E-01  1.000000
 


 Summary of "ao basis" -> "631g" (spherical)
 ------------------------------------------------------------------------------
       Tag                 Description            Shells   Functions and Types
 ---------------- ------------------------------  ------  ---------------------
 O                           6-31g                   5        9   3s2p
 H                           6-31g                   2        2   2s


                                 NWChem SCF Module
                                 -----------------
 
 
                                E and Grad of 1UBQ
 
 

  ao basis        = "631g"
  functions       =    13
  atoms           =     3
  closed shells   =     5
  open shells     =     0
  charge          =   0.00
  wavefunction    = RHF 
  input vectors   = /lustre/atlas/scratch/hjjvd/csc249/.3950074/nwc_gbe_dat.movecs
  output vectors  = /lustre/atlas/scratch/hjjvd/csc249/.3950074/nwc_gbe_dat.movecs
  use symmetry    = T
  symmetry adapt  = T


 Summary of "ao basis" -> "631g" (spherical)
 ------------------------------------------------------------------------------
       Tag                 Description            Shells   Functions and Types
 ---------------- ------------------------------  ------  ---------------------
 O                           6-31g                   5        9   3s2p
 H                           6-31g                   2        2   2s


      Symmetry analysis of basis
      --------------------------
 
        a'         11
        a"          2
 

 Forming initial guess at       0.3s


 Loading old vectors from job with title :

E and Grad of 1UBQ

 
      Symmetry analysis of molecular orbitals - initial
      -------------------------------------------------
 
  Numbering of irreducible representations: 
 
     1 a'          2 a"      
 
  Orbital symmetries:
 
     1 a'          2 a'          3 a'          4 a'          5 a"      
     6 a'          7 a'          8 a'          9 a'         10 a"      
    11 a'         12 a'         13 a'      
 

 Starting SCF solution at       0.3s



 ----------------------------------------------
         Quadratically convergent ROHF

 Convergence threshold     :          1.000E-06
 Maximum no. of iterations :          300
 Final Fock-matrix accuracy:          1.000E-10
 ----------------------------------------------


              iter       energy          gnorm     gmax       time
             ----- ------------------- --------- --------- --------
                 1      -75.9186807275  1.81D-08  9.70D-09      0.1


       Final RHF  results 
       ------------------ 

         Total SCF energy =    -75.918680727506
      One-electron energy =   -119.742138547608
      Two-electron energy =     36.378760347621
 Nuclear repulsion energy =      7.444697472481

        Time for solution =      0.0s


 
       Symmetry analysis of molecular orbitals - final
       -----------------------------------------------
 
  Numbering of irreducible representations: 
 
     1 a'          2 a"      
 
  Orbital symmetries:
 
     1 a'          2 a'          3 a'          4 a'          5 a"      
     6 a'          7 a'          8 a'          9 a'         10 a"      
    11 a'         12 a'         13 a'      
 
             Final eigenvalues
             -----------------

              1      
    1  -20.6014
    2   -1.2667
    3   -0.6051
    4   -0.5244
    5   -0.4947
    6    0.1423
    7    0.2274
    8    0.9683
    9    0.9899
   10    1.1634
   11    1.2378
   12    1.3757
   13    1.6458
 
                       ROHF Final Molecular Orbital Analysis
                       -------------------------------------
 
 Vector    2  Occ=2.000000D+00  E=-1.266710D+00  Symmetry=a'
              MO Center= -1.1D-02, -1.5D-03,  4.7D-18, r^2= 5.3D-01
   Bfn.  Coefficient  Atom+Function         Bfn.  Coefficient  Atom+Function  
  ----- ------------  ---------------      ----- ------------  ---------------
     6      0.530542  1 O  s                  2      0.485776  1 O  s          
     1     -0.218998  1 O  s          
 
 Vector    3  Occ=2.000000D+00  E=-6.051445D-01  Symmetry=a'
              MO Center=  1.2D-01, -1.2D-04,  7.6D-19, r^2= 1.0D+00
   Bfn.  Coefficient  Atom+Function         Bfn.  Coefficient  Atom+Function  
  ----- ------------  ---------------      ----- ------------  ---------------
     4      0.473874  1 O  py                 8      0.318231  1 O  py         
    12     -0.223255  3 H  s                 10      0.220946  2 H  s          
    11      0.177337  2 H  s                 13     -0.177913  3 H  s          
 
 Vector    4  Occ=2.000000D+00  E=-5.244099D-01  Symmetry=a'
              MO Center= -9.5D-02,  2.4D-03, -2.0D-17, r^2= 8.9D-01
   Bfn.  Coefficient  Atom+Function         Bfn.  Coefficient  Atom+Function  
  ----- ------------  ---------------      ----- ------------  ---------------
     3      0.526055  1 O  px                 7      0.403714  1 O  px         
     6     -0.246589  1 O  s                  2     -0.163992  1 O  s          
    10      0.151507  2 H  s          
 
 Vector    5  Occ=2.000000D+00  E=-4.946757D-01  Symmetry=a"
              MO Center= -1.4D-01, -1.1D-03,  4.8D-18, r^2= 5.9D-01
   Bfn.  Coefficient  Atom+Function         Bfn.  Coefficient  Atom+Function  
  ----- ------------  ---------------      ----- ------------  ---------------
     5      0.650479  1 O  pz                 9      0.500392  1 O  pz         
 
 Vector    6  Occ=0.000000D+00  E= 1.422675D-01  Symmetry=a'
              MO Center=  5.6D-01,  1.7D-02, -1.6D-17, r^2= 2.5D+00
   Bfn.  Coefficient  Atom+Function         Bfn.  Coefficient  Atom+Function  
  ----- ------------  ---------------      ----- ------------  ---------------
    11     -0.814357  2 H  s                  6      0.804626  1 O  s          
    13     -0.802604  3 H  s                  7      0.489746  1 O  px         
     3      0.307959  1 O  px         
 
 Vector    7  Occ=0.000000D+00  E= 2.274238D-01  Symmetry=a'
              MO Center=  5.4D-01, -1.3D-02,  7.4D-19, r^2= 2.5D+00
   Bfn.  Coefficient  Atom+Function         Bfn.  Coefficient  Atom+Function  
  ----- ------------  ---------------      ----- ------------  ---------------
    13     -0.998207  3 H  s                 11      0.980420  2 H  s          
     8     -0.721979  1 O  py                 4     -0.396050  1 O  py         
 
 Vector    8  Occ=0.000000D+00  E= 9.683123D-01  Symmetry=a'
              MO Center=  5.9D-01,  8.3D-02, -2.7D-16, r^2= 1.8D+00
   Bfn.  Coefficient  Atom+Function         Bfn.  Coefficient  Atom+Function  
  ----- ------------  ---------------      ----- ------------  ---------------
    10      0.886798  2 H  s                 12      0.815089  3 H  s          
    11     -0.781202  2 H  s                 13     -0.703403  3 H  s          
     6      0.515433  1 O  s                  3     -0.384962  1 O  px         
     2     -0.271428  1 O  s                  7      0.164248  1 O  px         
 
 Vector    9  Occ=0.000000D+00  E= 9.898702D-01  Symmetry=a'
              MO Center=  5.3D-01, -7.2D-02,  1.1D-17, r^2= 2.2D+00
   Bfn.  Coefficient  Atom+Function         Bfn.  Coefficient  Atom+Function  
  ----- ------------  ---------------      ----- ------------  ---------------
    13      0.959365  3 H  s                 12     -0.946159  3 H  s          
    11     -0.902723  2 H  s                 10      0.876887  2 H  s          
     4     -0.301630  1 O  py         
 
 Vector   10  Occ=0.000000D+00  E= 1.163418D+00  Symmetry=a"
              MO Center= -1.4D-01, -1.1D-03, -3.7D-16, r^2= 1.1D+00
   Bfn.  Coefficient  Atom+Function         Bfn.  Coefficient  Atom+Function  
  ----- ------------  ---------------      ----- ------------  ---------------
     9     -1.041947  1 O  pz                 5      0.955470  1 O  pz         
 
 Vector   11  Occ=0.000000D+00  E= 1.237769D+00  Symmetry=a'
              MO Center= -4.8D-01, -9.2D-04,  5.5D-16, r^2= 1.1D+00
   Bfn.  Coefficient  Atom+Function         Bfn.  Coefficient  Atom+Function  
  ----- ------------  ---------------      ----- ------------  ---------------
     7      1.030506  1 O  px                 3     -0.856028  1 O  px         
     2      0.545729  1 O  s                  6     -0.472106  1 O  s          
    10     -0.254857  2 H  s                 12     -0.255245  3 H  s          
 
 Vector   12  Occ=0.000000D+00  E= 1.375672D+00  Symmetry=a'
              MO Center= -2.8D-01, -2.5D-03,  8.1D-21, r^2= 1.2D+00
   Bfn.  Coefficient  Atom+Function         Bfn.  Coefficient  Atom+Function  
  ----- ------------  ---------------      ----- ------------  ---------------
     8      1.480516  1 O  py                 4     -0.975652  1 O  py         
    13      0.382493  3 H  s                 11     -0.377678  2 H  s          
    10     -0.269874  2 H  s                 12      0.267323  3 H  s          
 
 Vector   13  Occ=0.000000D+00  E= 1.645778D+00  Symmetry=a'
              MO Center=  2.5D-01,  7.0D-04,  1.1D-16, r^2= 1.1D+00
   Bfn.  Coefficient  Atom+Function         Bfn.  Coefficient  Atom+Function  
  ----- ------------  ---------------      ----- ------------  ---------------
     6      2.095129  1 O  s                  2     -1.554576  1 O  s          
     7      0.769167  1 O  px                10     -0.397399  2 H  s          
    12     -0.397760  3 H  s                 13     -0.373337  3 H  s          
    11     -0.367046  2 H  s                  3     -0.348880  1 O  px         
 

 center of mass
 --------------
 x =  -0.11845376 y =  -0.00092482 z =   0.00000000

 moments of inertia (a.u.)
 ------------------
           6.408235562136          -0.000000000000           0.000000000000
          -0.000000000000           3.237247082117           0.000000000000
           0.000000000000           0.000000000000           9.645482644253
 
  Mulliken analysis of the total density
  --------------------------------------

    Atom       Charge   Shell Charges
 -----------   ------   -------------------------------------------------------
    1 O    8     8.75   2.00  0.92  2.70  1.04  2.09
    2 H    1     0.63   0.39  0.24
    3 H    1     0.63   0.39  0.23
 
       Multipole analysis of the density wrt the origin
       ------------------------------------------------
 
     L   x y z        total         open         nuclear
     -   - - -        -----         ----         -------
     0   0 0 0     -0.000000      0.000000     10.000000
 
     1   1 0 0      1.028816      0.000000     -0.000000
     1   0 1 0      0.005517      0.000000     -0.000000
     1   0 0 1      0.000000      0.000000      0.000000
 
     2   2 0 0     -4.623489      0.000000      2.893527
     2   1 1 0     -0.005299      0.000000     -0.002487
     2   1 0 1      0.000000      0.000000      0.000000
     2   0 2 0     -2.764648      0.000000      6.358461
     2   0 1 1      0.000000      0.000000      0.000000
     2   0 0 2     -5.705920      0.000000      0.000000
 
 -----------------------
 Performance information
 -----------------------

 Timer overhead =  8.00D-07 seconds/call

               Nr. of calls         CPU time (s)                 Wall time (s)                GFlops
             ---------------    -------------------     ------------------------------   -------------------
Name         Min   Avg   Max    Min     Avg     Max     Min     Avg     Max   Mx/calls   Min     Max     Sum
scf: sear     1     1     1   4.00E-3 3.09E-2 3.60E-2  4.05E-2 4.05E-2 4.05E-2 4.05E-2   0.0     0.0     0.0   
scf: fock     1     1     1    0.0    1.87E-3 8.00E-3  1.65E-3 2.46E-3 4.91E-3 4.91E-3   0.0     0.0     0.0   
scf: int-    14    14    14    0.0    8.00E-3 1.60E-2  1.41E-2 1.41E-2 1.41E-2 1.01E-3   0.0     0.0     0.0   
scf: orth     4     4     4    0.0    1.60E-3 4.00E-3  1.50E-3 1.50E-3 1.50E-3 3.76E-4   0.0     0.0     0.0   
scf: diag     1     1     1    0.0    7.73E-3 1.60E-2  1.50E-2 1.55E-2 1.55E-2 1.55E-2   0.0     0.0     0.0   
scf: veci     5     5     5    0.0    6.67E-3 1.20E-2  8.10E-3 8.13E-3 8.16E-3 1.63E-3   0.0     0.0     0.0   
scf: sym      3     3     3    0.0    6.93E-3 1.20E-2  1.37E-2 1.37E-2 1.38E-2 4.59E-3   0.0     0.0     0.0   
scf: sym      2     2     2    0.0    3.47E-3 8.00E-3  4.99E-3 4.99E-3 4.99E-3 2.50E-3   0.0     0.0     0.0   
scf: mull     1     1     1    0.0    3.20E-3 8.00E-3  4.74E-3 4.76E-3 4.76E-3 4.76E-3   0.0     0.0     0.0   
scf: mult     1     1     1    0.0     0.0     0.0     2.95E-4 3.32E-4 3.58E-4 3.58E-4   0.0     0.0     0.0   
scf: moan     1     1     1    0.0    4.80E-3 8.00E-3  8.81E-3 8.86E-3 9.65E-3 9.65E-3   0.0     0.0     0.0   
scf: tota     1     1     1   2.40E-2 0.10    0.14     0.16    0.16    0.16    0.16      0.0     0.0     0.0   

 The average no. of pstat calls per process was 3.50D+01
 with a timing overhead of 2.80D-05s

                   NWChem Extensible Many-Electron Theory Module
                   ---------------------------------------------
 
              ======================================================
                   This portion of the program was automatically
                  generated by a Tensor Contraction Engine (TCE).
                  The development of this portion of the program
                 and TCE was supported by US Department of Energy,
                Office of Science, Office of Basic Energy Science.
                      TCE is a product of Battelle and PNNL.
              Please cite: S.Hirata, J.Phys.Chem.A 107, 9887 (2003).
              ======================================================
 
                                E and Grad of 1UBQ
 
 
            General Information
            -------------------
      Number of processors :    15
         Wavefunction type : Restricted Hartree-Fock
          No. of electrons :    10
           Alpha electrons :     5
            Beta electrons :     5
           No. of orbitals :    26
            Alpha orbitals :    13
             Beta orbitals :    13
        Alpha frozen cores :     0
         Beta frozen cores :     0
     Alpha frozen virtuals :     0
      Beta frozen virtuals :     0
         Spin multiplicity : singlet 
    Number of AO functions :    13
       Number of AO shells :     9
        Use of symmetry is : on 
      Symmetry adaption is : on 
         Schwarz screening : 0.10D-09
 
          Correlation Information
          -----------------------
          Calculation type : Coupled-cluster singles & doubles w/ perturbation           
   Perturbative correction : (T)                                                         
            Max iterations :      100
        Residual threshold : 0.10D-02
     T(0) DIIS level shift : 0.00D+00
     L(0) DIIS level shift : 0.00D+00
     T(1) DIIS level shift : 0.00D+00
     L(1) DIIS level shift : 0.00D+00
     T(R) DIIS level shift : 0.00D+00
     T(I) DIIS level shift : 0.00D+00
   CC-T/L Amplitude update :  5-th order DIIS
                I/O scheme : Global Array Library
        L-threshold :  0.10D-02
        EOM-threshold :  0.10D-02
 no EOMCCSD initial starts read in
 TCE RESTART OPTIONS
 READ_INT:    T
 WRITE_INT:   F
 READ_TA:     T
 WRITE_TA:    F
 READ_XA:     F
 WRITE_XA:    F
 READ_IN3:    F
 WRITE_IN3:   F
 SLICE:       F
 D4D5:        F
 
            Memory Information
            ------------------
          Available GA space size is    4026531671 doubles
          Available MA space size is     111410004 doubles
 
 Maximum block size supplied by input
 Maximum block size        15 doubles

 tile_dim =      7

 Block   Spin    Irrep     Size     Offset   Alpha
 -------------------------------------------------
   1    alpha     a'     4 doubles       0       1
   2    alpha     a"     1 doubles       4       2
   3    beta      a'     4 doubles       5       1
   4    beta      a"     1 doubles       9       2
   5    alpha     a'     7 doubles      10       5
   6    alpha     a"     1 doubles      17       6
   7    beta      a'     7 doubles      18       5
   8    beta      a"     1 doubles      25       6

 Global array virtual files algorithm will be used

 Parallel file system coherency ......... OK
 size_1e                      125
  0 ga offset                   0 size_xx_perproc                  31
 READ TENSOR
  total size:               125
  1 ga offset                  31 size_xx_perproc                  31
  filename: /lustre/atlas/scratch/hjjvd/csc249/.3950074/nwc_gbe_dat.f1int.000000            
  unit nr:       77
  file size:             31
  rec_mem (KB):     2048
  rec_size:         262144
  number of tasks:            1
  3 ga offset                  93 size_xx_perproc                  32
  2 ga offset                  62 size_xx_perproc                  31
 
 Fock matrix recomputed
 1-e file size   =              125
 1-e file name   = /lustre/atlas/scratch/hjjvd/csc249/.3950074/nwc_gbe_dat.f1int.000000
 Cpu & wall time / sec            0.0            0.0
 4-electron integrals stored in orbital form
 
 v2    file size   =             6637
 4-index algorithm nr.  15 is used
 imaxsize =       45
 imaxsize ichop =        0
  1 ga offset                1659 size_xx_perproc                1659
  2 ga offset                3318 size_xx_perproc                1659
  0 ga offset                   0 size_xx_perproc                1659
 READ TENSOR
  total size:              6637
  filename: /lustre/atlas/scratch/hjjvd/csc249/.3950074/nwc_gbe_dat.v2int.000000            
  unit nr:      178
  file size:           1659
  rec_mem (KB):     2048
  rec_size:         262144
  number of tasks:            1
  3 ga offset                4977 size_xx_perproc                1660
 Cpu & wall time / sec            0.0            0.0
 T1-number-of-tasks                        2
 
 t1 file size   =               29
 t1 file name   = /lustre/atlas/scratch/hjjvd/csc249/.3950074/nwc_gbe_dat.t1
 t1 file handle =       -995
 T2-number-of-boxes                       13
 
 t2 file size   =             1840
 t2 file name   = /lustre/atlas/scratch/hjjvd/csc249/.3950074/nwc_gbe_dat.t2
 t2 file handle =       -994
  0 ga offset                   0 size_xx_perproc                   7
  1 ga offset                   7 size_xx_perproc                   7
  2 ga offset                  14 size_xx_perproc                   7
  3 ga offset                  21 size_xx_perproc                   8
 READ TENSOR
  total size:                29
  filename: /lustre/atlas/scratch/hjjvd/csc249/.3950074/nwc_gbe_dat.t1amp.000000            
  unit nr:       79
  file size:              7
  rec_mem (KB):     2048
  rec_size:         262144
  number of tasks:            1
  0 ga offset                   0 size_xx_perproc                 460
  1 ga offset                 460 size_xx_perproc                 460
  3 ga offset                1380 size_xx_perproc                 460
 READ TENSOR
  total size:              1840
  filename: /lustre/atlas/scratch/hjjvd/csc249/.3950074/nwc_gbe_dat.t2amp.000000            
  unit nr:       80
  file size:            460
  rec_mem (KB):     2048
  rec_size:         262144
  number of tasks:            1
  2 ga offset                 920 size_xx_perproc                 460
CCSD iterations
 ---------------------------------------------------------
 Iter          Residuum       Correlation     Cpu    Wall 
 ---------------------------------------------------------
NEW TASK SCHEDULING
CCSD_T1_NTS --- OK
CCSD_T2_NTS --- OK
    1   0.0005423791927  -0.1579140236604     0.1     0.1
 -----------------------------------------------------------------
 Iterations converged
 CCSD correlation energy / hartree =        -0.157914023660370
 CCSD total energy / hartree       =       -76.076594751165871

 Singles contributions

 Doubles contributions
 CCSD(T)
 Using plain CCSD(T) code
             total no. of tasks           26
 total no. of tasks / no. procs            1
                         wl_min            1           1.0
                         wl_max        21952           5.3
        thresh for no. of tasks           26
0task     3  done   11%  at            0.0 sec, (size)^1/6=       3.3
0task    24  done   92%  at            0.0 sec, (size)^1/6=       1.6
 
 CCSD[T]  correction energy / hartree =        -0.002303425830161
 CCSD[T] correlation energy / hartree =        -0.160217449490531
 CCSD[T] total energy / hartree       =       -76.078898176996034
 CCSD(T)  correction energy / hartree =        -0.002082764580591
 CCSD(T) correlation energy / hartree =        -0.159996788240961
 CCSD(T) total energy / hartree       =       -76.078677515746463
 Cpu & wall time / sec            0.0            0.0

 Task  times  cpu:        0.2s     wall:        0.4s
 
 
                                NWChem Input Module
                                -------------------
 
 
 Summary of allocated global arrays
-----------------------------------
  array 0 => double precision alpha AO Fock(13,13),  handle: -999 
  array 1 => double precision beta AO Fock(13,13),  handle: -998 



                         GA Statistics for process    0
                         ------------------------------

       create   destroy   get      put      acc     scatter   gather  read&inc
calls:  129      127      378      147       79        0        0      176     
number of processes/call 2.21e+00 2.12e+00 3.86e+00 0.00e+00 0.00e+00
bytes total:             3.36e+05 7.95e+04 6.80e+04 0.00e+00 0.00e+00 1.41e+03
bytes remote:            2.36e+05 2.68e+04 5.47e+04 0.00e+00 0.00e+00 8.32e+02
Max memory consumed for GA by this process: 15752 bytes
 
MA_summarize_allocated_blocks: starting scan ...
MA_summarize_allocated_blocks: scan completed: 0 heap blocks, 0 stack blocks
MA usage statistics:

	allocation statistics:
					      heap	     stack
					      ----	     -----
	current number of blocks	         0	         0
	maximum number of blocks	        17	        42
	current total bytes		         0	         0
	maximum total bytes		     80120	   8152120
	maximum total K-bytes		        81	      8153
	maximum total M-bytes		         1	         9
 
 
                                     CITATION
                                     --------
                Please cite the following reference when publishing
                           results obtained with NWChem:
 
                 M. Valiev, E.J. Bylaska, N. Govind, K. Kowalski,
              T.P. Straatsma, H.J.J. van Dam, D. Wang, J. Nieplocha,
                        E. Apra, T.L. Windus, W.A. de Jong
                 "NWChem: a comprehensive and scalable open-source
                  solution for large scale molecular simulations"
                      Comput. Phys. Commun. 181, 1477 (2010)
                           doi:10.1016/j.cpc.2010.04.018
 
                                      AUTHORS
                                      -------
          E. Apra, E. J. Bylaska, W. A. de Jong, N. Govind, K. Kowalski,
       T. P. Straatsma, M. Valiev, H. J. J. van Dam, D. Wang, T. L. Windus,
        J. Hammond, J. Autschbach, K. Bhaskaran-Nair, J. Brabec, K. Lopata,
    S. A. Fischer, S. Krishnamoorthy, M. Jacquelin, W. Ma, M. Klemm, O. Villa,
      Y. Chen, V. Anisimov, F. Aquino, S. Hirata, M. T. Hackler, V. Konjkov,
            D. Mejia-Rodriguez, T. Risthaus, M. Malagoli, A. Marenich,
   A. Otero-de-la-Roza, J. Mullin, P. Nichols, R. Peverati, J. Pittner, Y. Zhao,
        P.-D. Fan, A. Fonari, M. J. Williamson, R. J. Harrison, J. R. Rehr,
      M. Dupuis, D. Silverstein, D. M. A. Smith, J. Nieplocha, V. Tipparaju,
    M. Krishnan, B. E. Van Kuiken, A. Vazquez-Mayagoitia, L. Jensen, M. Swart,
      Q. Wu, T. Van Voorhis, A. A. Auer, M. Nooijen, L. D. Crosby, E. Brown,
      G. Cisneros, G. I. Fann, H. Fruchtl, J. Garza, K. Hirao, R. A. Kendall,
      J. A. Nichols, K. Tsemekhman, K. Wolinski, J. Anchell, D. E. Bernholdt,
      P. Borowski, T. Clark, D. Clerc, H. Dachsel, M. J. O. Deegan, K. Dyall,
    D. Elwood, E. Glendening, M. Gutowski, A. C. Hess, J. Jaffe, B. G. Johnson,
     J. Ju, R. Kobayashi, R. Kutteh, Z. Lin, R. Littlefield, X. Long, B. Meng,
      T. Nakajima, S. Niu, L. Pollack, M. Rosing, K. Glaesemann, G. Sandrone,
      M. Stave, H. Taylor, G. Thomas, J. H. van Lenthe, A. T. Wong, Z. Zhang.

 Total times  cpu:        0.2s     wall:        0.8s
Application 17171741 resources: utime ~11s, stime ~7s, Rss ~50276, inblocks ~1171378, outblocks ~237514
total 116600
-rw------- 1 hjjvd hjjvd       253 Apr  6 08:55 h2o.pdb
-rw------- 1 hjjvd hjjvd       827 Apr  6 08:55 nwc_gbe_631g_ccsd.nw
-rw------- 1 hjjvd hjjvd       870 Apr  6 08:55 nwc_gbe_631g_ccsd_t.nw
-rw------- 1 hjjvd hjjvd       349 Apr  6 08:55 nwc_gbe_631g_rhf.nw
-rw------- 1 hjjvd hjjvd      1387 Apr  6 08:55 nwc_gbe_dat.cfock
-rw------- 1 hjjvd hjjvd    759462 Apr  6 08:55 nwc_gbe_dat.db
-rw------- 1 hjjvd hjjvd       264 Apr  6 08:55 nwc_gbe_dat.f1int.000000
-rw------- 1 hjjvd hjjvd       264 Apr  6 08:55 nwc_gbe_dat.f1int.000001
-rw------- 1 hjjvd hjjvd       264 Apr  6 08:55 nwc_gbe_dat.f1int.000002
-rw------- 1 hjjvd hjjvd       272 Apr  6 08:55 nwc_gbe_dat.f1int.000003
-rw------- 1 hjjvd hjjvd      2000 Apr  6 08:55 nwc_gbe_dat.movecs
-rw------- 1 hjjvd hjjvd        72 Apr  6 08:55 nwc_gbe_dat.t1amp.000000
-rw------- 1 hjjvd hjjvd        72 Apr  6 08:55 nwc_gbe_dat.t1amp.000001
-rw------- 1 hjjvd hjjvd        72 Apr  6 08:55 nwc_gbe_dat.t1amp.000002
-rw------- 1 hjjvd hjjvd        80 Apr  6 08:55 nwc_gbe_dat.t1amp.000003
-rw------- 1 hjjvd hjjvd      3696 Apr  6 08:55 nwc_gbe_dat.t2amp.000000
-rw------- 1 hjjvd hjjvd      3696 Apr  6 08:55 nwc_gbe_dat.t2amp.000001
-rw------- 1 hjjvd hjjvd      3696 Apr  6 08:55 nwc_gbe_dat.t2amp.000002
-rw------- 1 hjjvd hjjvd      3696 Apr  6 08:55 nwc_gbe_dat.t2amp.000003
-rw------- 1 hjjvd hjjvd     13288 Apr  6 08:55 nwc_gbe_dat.v2int.000000
-rw------- 1 hjjvd hjjvd     13288 Apr  6 08:55 nwc_gbe_dat.v2int.000001
-rw------- 1 hjjvd hjjvd     13288 Apr  6 08:55 nwc_gbe_dat.v2int.000002
-rw------- 1 hjjvd hjjvd     13296 Apr  6 08:55 nwc_gbe_dat.v2int.000003
-rwx------ 1 hjjvd hjjvd 119291415 Apr  6 08:55 nwchem
HVD: All Done
