 argument  1 = nwc_gbe_631g_ccsd.nw



============================== echo of input deck ==============================
echo
restart nwc_gbe_dat
title "E and Grad of 1UBQ"
#memory stack 800 mb heap 100 mb global 2000 mb noverify
geometry noautoz
   load format pdb "h2o.pdb"
end
basis 631g spherical
  * library 6-31g
end

set "ao basis" 631g
charge 0
scf
  thresh 1.0e-6
  tol2e 1.0e-10
  singlet
  rhf
  maxiter 300
end
set scf:pstat t
set tce:pstat t

tce
  ccsd
  2eorb
  2emet 15
  tilesize 40
  attilesize 45
  thresh 1.0e-3
  maxiter 100
end

set tce:nts T

### tce restart ########
#
# when generating 2-electron integrals for the first time:
# uncomment "set tce:writeint T"
# in following runs please
# comment  "set tce:writeint T"
# and
# uncomment "set tce:readint T"
# it will save time :-)
#
set tce:tceiop   2048
set tce:writeint T
set tce:writet   T
#set tce:writex   T
#set tce:readint T
#######################

task tce energy
================================================================================


                                         
                                         


              Northwest Computational Chemistry Package (NWChem) 6.8
              ------------------------------------------------------


                    Environmental Molecular Sciences Laboratory
                       Pacific Northwest National Laboratory
                                Richland, WA 99352

                              Copyright (c) 1994-2015
                       Pacific Northwest National Laboratory
                            Battelle Memorial Institute

             NWChem is an open-source computational chemistry package
                        distributed under the terms of the
                      Educational Community License (ECL) 2.0
             A copy of the license is included with this distribution
                              in the LICENSE.TXT file

                                  ACKNOWLEDGMENT
                                  --------------

            This software and its documentation were developed at the
            EMSL at Pacific Northwest National Laboratory, a multiprogram
            national laboratory, operated for the U.S. Department of Energy
            by Battelle under Contract Number DE-AC05-76RL01830. Support
            for this work was provided by the Department of Energy Office
            of Biological and Environmental Research, Office of Basic
            Energy Sciences, and the Office of Advanced Scientific Computing.


           Job information
           ---------------

    hostname        = erato
    program         = /home/hvandam/nwchem-1-codar/bin/LINUX64/nwchem
    date            = Fri Mar 16 16:39:10 2018

    compiled        = Tue_Feb_27_17:26:40_2018
    source          = /home/hvandam/nwchem-1-codar
    nwchem branch   = Development
    nwchem revision = nwchem_on_git-41-g31adc0322a1f3f8e20b8d7a9df63a9e40bec60e9
    ga revision     = nwchem_on_git-41-g31adc03
    use scalapack   = F
    input           = nwc_gbe_631g_ccsd.nw
    prefix          = nwc_gbe_dat.
    data base       = ./nwc_gbe_dat.db
    status          = restart
    nproc           =        6
    time left       =     -1s



           Memory information
           ------------------

    heap     =   13107198 doubles =    100.0 Mbytes
    stack    =   13107195 doubles =    100.0 Mbytes
    global   =   26214400 doubles =    200.0 Mbytes (distinct from heap & stack)
    total    =   52428793 doubles =    400.0 Mbytes
    verify   = yes
    hardfail = no 


           Directory information
           ---------------------

  0 permanent = .
  0 scratch   = .


           Previous task information
           -------------------------

    Theory    = scf                             
    Operation = energy                        
    Status    = ok                            
    Qmmm      = F
    Ignore    = F


           Geometries in the database
           --------------------------

       Name                              Natoms  Last Modified
       --------------------------------  ------  ------------------------
    1  geometry                               3  Fri Mar 16 16:39:04 2018  

  The geometry named "geometry" is the default for restart



           Basis sets in the database
           --------------------------

       Name                              Natoms  Last Modified
        --------------------------------  ------  ------------------------
    1  631g                                   0  Fri Mar 16 16:39:04 2018  

  The basis set named "631g" is the default AO basis for restart




                                NWChem Input Module
                                -------------------


                                E and Grad of 1UBQ
                                ------------------

 Scaling coordinates for geometry "geometry" by  1.889725989
 (inverse scale =  0.529177249)

 CS  symmetry detected


                             Geometry "geometry" -> ""
                             -------------------------

 Output coordinates in angstroms (scale by  1.889725989 to convert to a.u.)

  No.       Tag          Charge          X              Y              Z
 ---- ---------------- ---------- -------------- -------------- --------------
    1 O                    8.0000    -0.14232380    -0.00111119     0.00000000
    2 H                    1.0000     0.56557384     0.94797570     0.00000000
    3 H                    1.0000     0.57301659    -0.93908620     0.00000000

      Atomic Mass 
      ----------- 

      O                 15.994910
      H                  1.007825


 Effective nuclear repulsion energy (a.u.)       7.4446974725

            Nuclear Dipole moment (a.u.) 
            ----------------------------
        X                 Y               Z
 ---------------- ---------------- ----------------
     0.0000000000     0.0000000000     0.0000000000

      Symmetry information
      --------------------

 Group name             Cs        
 Group number              2
 Group order               2
 No. of unique centers     3

      Symmetry unique atoms

     1    2    3


            XYZ format geometry
            -------------------
     3
 geometry
 O                    -0.14232380    -0.00111119     0.00000000
 H                     0.56557384     0.94797570     0.00000000
 H                     0.57301659    -0.93908620     0.00000000



 Summary of "631g" -> "" (spherical)
 ------------------------------------------------------------------------------
       Tag                 Description            Shells   Functions and Types
 ---------------- ------------------------------  ------  ---------------------
 *                           6-31g                    on all atoms 


                      Basis "ao basis" -> "631g" (spherical)
                      -----
  O (Oxygen)
  ----------
            Exponent  Coefficients 
       -------------- ---------------------------------------------------------
  1 S  5.48467170E+03  0.001831
  1 S  8.25234950E+02  0.013950
  1 S  1.88046960E+02  0.068445
  1 S  5.29645000E+01  0.232714
  1 S  1.68975700E+01  0.470193
  1 S  5.79963530E+00  0.358521

  2 S  1.55396160E+01 -0.110778
  2 S  3.59993360E+00 -0.148026
  2 S  1.01376180E+00  1.130767

  3 P  1.55396160E+01  0.070874
  3 P  3.59993360E+00  0.339753
  3 P  1.01376180E+00  0.727159

  4 S  2.70005800E-01  1.000000

  5 P  2.70005800E-01  1.000000

  H (Hydrogen)
  ------------
            Exponent  Coefficients 
       -------------- ---------------------------------------------------------
  1 S  1.87311370E+01  0.033495
  1 S  2.82539370E+00  0.234727
  1 S  6.40121700E-01  0.813757

  2 S  1.61277800E-01  1.000000



 Summary of "ao basis" -> "631g" (spherical)
 ------------------------------------------------------------------------------
       Tag                 Description            Shells   Functions and Types
 ---------------- ------------------------------  ------  ---------------------
 O                           6-31g                   5        9   3s2p
 H                           6-31g                   2        2   2s


                                 NWChem SCF Module
                                 -----------------


                                E and Grad of 1UBQ



  ao basis        = "631g"
  functions       =    13
  atoms           =     3
  closed shells   =     5
  open shells     =     0
  charge          =   0.00
  wavefunction    = RHF 
  input vectors   = ./nwc_gbe_dat.movecs
  output vectors  = ./nwc_gbe_dat.movecs
  use symmetry    = T
  symmetry adapt  = T


 Summary of "ao basis" -> "631g" (spherical)
 ------------------------------------------------------------------------------
       Tag                 Description            Shells   Functions and Types
 ---------------- ------------------------------  ------  ---------------------
 O                           6-31g                   5        9   3s2p
 H                           6-31g                   2        2   2s


      Symmetry analysis of basis
      --------------------------

        a'         11
        a"          2


 Forming initial guess at       0.3s


 Loading old vectors from job with title :

E and Grad of 1UBQ


      Symmetry analysis of molecular orbitals - initial
      -------------------------------------------------

  Numbering of irreducible representations: 

     1 a'          2 a"      

  Orbital symmetries:

     1 a'          2 a'          3 a'          4 a'          5 a"      
     6 a'          7 a'          8 a'          9 a'         10 a"      
    11 a'         12 a'         13 a'      


 Starting SCF solution at       0.3s



 ----------------------------------------------
         Quadratically convergent ROHF

 Convergence threshold     :          1.000E-06
 Maximum no. of iterations :          300
 Final Fock-matrix accuracy:          1.000E-10
 ----------------------------------------------


 #quartets = 1.035D+03 #integrals = 2.447D+03 #direct =  0.0% #cached =100.0%


 Integral file          = ./nwc_gbe_dat.aoints.0
 Record size in doubles =  65536        No. of integs per rec  =  43688
 Max. records in memory =      2        Max. records in file   = 854699
 No. of bits per label  =      8        No. of bits per value  =     64


File balance: exchanges=     0  moved=     0  time=   0.0


              iter       energy          gnorm     gmax       time
             ----- ------------------- --------- --------- --------
                 1      -75.9186807276  1.81D-08  9.72D-09      0.1


       Final RHF  results 
       ------------------ 

         Total SCF energy =    -75.918680727575
      One-electron energy =   -119.742138547617
      Two-electron energy =     36.378760347561
 Nuclear repulsion energy =      7.444697472481

        Time for solution =      0.0s



       Symmetry analysis of molecular orbitals - final
       -----------------------------------------------

  Numbering of irreducible representations: 

     1 a'          2 a"      

  Orbital symmetries:

     1 a'          2 a'          3 a'          4 a'          5 a"      
     6 a'          7 a'          8 a'          9 a'         10 a"      
    11 a'         12 a'         13 a'      

             Final eigenvalues
             -----------------

              1      
    1  -20.6014
    2   -1.2667
    3   -0.6051
    4   -0.5244
    5   -0.4947
    6    0.1423
    7    0.2274
    8    0.9683
    9    0.9899
   10    1.1634
   11    1.2378
   12    1.3757
   13    1.6458

                       ROHF Final Molecular Orbital Analysis
                       -------------------------------------

 Vector    2  Occ=2.000000D+00  E=-1.266710D+00  Symmetry=a'
              MO Center= -1.1D-02, -1.5D-03, -7.4D-18, r^2= 5.3D-01
   Bfn.  Coefficient  Atom+Function         Bfn.  Coefficient  Atom+Function  
  ----- ------------  ---------------      ----- ------------  ---------------
     6      0.530542  1 O  s                  2      0.485776  1 O  s          
     1     -0.218998  1 O  s          

 Vector    3  Occ=2.000000D+00  E=-6.051445D-01  Symmetry=a'
              MO Center=  1.2D-01, -1.2D-04,  3.9D-20, r^2= 1.0D+00
   Bfn.  Coefficient  Atom+Function         Bfn.  Coefficient  Atom+Function  
  ----- ------------  ---------------      ----- ------------  ---------------
     4      0.473874  1 O  py                 8      0.318231  1 O  py         
    12     -0.223255  3 H  s                 10      0.220946  2 H  s          
    11      0.177337  2 H  s                 13     -0.177913  3 H  s          

 Vector    4  Occ=2.000000D+00  E=-5.244099D-01  Symmetry=a'
              MO Center= -9.5D-02,  2.4D-03,  1.7D-18, r^2= 8.9D-01
   Bfn.  Coefficient  Atom+Function         Bfn.  Coefficient  Atom+Function  
  ----- ------------  ---------------      ----- ------------  ---------------
     3      0.526055  1 O  px                 7      0.403714  1 O  px         
     6     -0.246589  1 O  s                  2     -0.163992  1 O  s          
    10      0.151507  2 H  s          

 Vector    5  Occ=2.000000D+00  E=-4.946757D-01  Symmetry=a"
              MO Center= -1.4D-01, -1.1D-03, -1.4D-18, r^2= 5.9D-01
   Bfn.  Coefficient  Atom+Function         Bfn.  Coefficient  Atom+Function  
  ----- ------------  ---------------      ----- ------------  ---------------
     5      0.650479  1 O  pz                 9      0.500392  1 O  pz         

 Vector    6  Occ=0.000000D+00  E= 1.422675D-01  Symmetry=a'
              MO Center=  5.6D-01,  1.7D-02,  2.4D-17, r^2= 2.5D+00
   Bfn.  Coefficient  Atom+Function         Bfn.  Coefficient  Atom+Function  
  ----- ------------  ---------------      ----- ------------  ---------------
    11     -0.814357  2 H  s                  6      0.804626  1 O  s          
    13     -0.802604  3 H  s                  7      0.489746  1 O  px         
     3      0.307959  1 O  px         

 Vector    7  Occ=0.000000D+00  E= 2.274238D-01  Symmetry=a'
              MO Center=  5.4D-01, -1.3D-02, -2.2D-18, r^2= 2.5D+00
   Bfn.  Coefficient  Atom+Function         Bfn.  Coefficient  Atom+Function  
  ----- ------------  ---------------      ----- ------------  ---------------
    13     -0.998207  3 H  s                 11      0.980420  2 H  s          
     8     -0.721979  1 O  py                 4     -0.396050  1 O  py         

 Vector    8  Occ=0.000000D+00  E= 9.683123D-01  Symmetry=a'
              MO Center=  5.9D-01,  8.3D-02,  3.0D-16, r^2= 1.8D+00
   Bfn.  Coefficient  Atom+Function         Bfn.  Coefficient  Atom+Function  
  ----- ------------  ---------------      ----- ------------  ---------------
    10      0.886798  2 H  s                 12      0.815089  3 H  s          
    11     -0.781202  2 H  s                 13     -0.703403  3 H  s          
     6      0.515433  1 O  s                  3     -0.384962  1 O  px         
     2     -0.271428  1 O  s                  7      0.164248  1 O  px         

 Vector    9  Occ=0.000000D+00  E= 9.898702D-01  Symmetry=a'
              MO Center=  5.3D-01, -7.2D-02, -5.6D-17, r^2= 2.2D+00
   Bfn.  Coefficient  Atom+Function         Bfn.  Coefficient  Atom+Function  
  ----- ------------  ---------------      ----- ------------  ---------------
    13      0.959365  3 H  s                 12     -0.946159  3 H  s          
    11     -0.902723  2 H  s                 10      0.876887  2 H  s          
     4     -0.301630  1 O  py         

 Vector   10  Occ=0.000000D+00  E= 1.163418D+00  Symmetry=a"
              MO Center= -1.4D-01, -1.1D-03,  5.0D-16, r^2= 1.1D+00
   Bfn.  Coefficient  Atom+Function         Bfn.  Coefficient  Atom+Function  
  ----- ------------  ---------------      ----- ------------  ---------------
     9     -1.041947  1 O  pz                 5      0.955470  1 O  pz         

 Vector   11  Occ=0.000000D+00  E= 1.237769D+00  Symmetry=a'
              MO Center= -4.8D-01, -9.2D-04, -6.4D-16, r^2= 1.1D+00
   Bfn.  Coefficient  Atom+Function         Bfn.  Coefficient  Atom+Function  
  ----- ------------  ---------------      ----- ------------  ---------------
     7      1.030506  1 O  px                 3     -0.856028  1 O  px         
     2      0.545729  1 O  s                  6     -0.472106  1 O  s          
    10     -0.254857  2 H  s                 12     -0.255245  3 H  s          

 Vector   12  Occ=0.000000D+00  E= 1.375672D+00  Symmetry=a'
              MO Center= -2.8D-01, -2.5D-03, -8.0D-21, r^2= 1.2D+00
   Bfn.  Coefficient  Atom+Function         Bfn.  Coefficient  Atom+Function  
  ----- ------------  ---------------      ----- ------------  ---------------
     8      1.480516  1 O  py                 4     -0.975652  1 O  py         
    13      0.382493  3 H  s                 11     -0.377678  2 H  s          
    10     -0.269874  2 H  s                 12      0.267323  3 H  s          

 Vector   13  Occ=0.000000D+00  E= 1.645778D+00  Symmetry=a'
              MO Center=  2.5D-01,  7.0D-04, -1.3D-16, r^2= 1.1D+00
   Bfn.  Coefficient  Atom+Function         Bfn.  Coefficient  Atom+Function  
  ----- ------------  ---------------      ----- ------------  ---------------
     6      2.095129  1 O  s                  2     -1.554576  1 O  s          
     7      0.769167  1 O  px                10     -0.397399  2 H  s          
    12     -0.397760  3 H  s                 13     -0.373337  3 H  s          
    11     -0.367046  2 H  s                  3     -0.348880  1 O  px         


 center of mass
 --------------
 x =  -0.11845376 y =  -0.00092482 z =   0.00000000

 moments of inertia (a.u.)
 ------------------
           6.408235562136           0.000000000000           0.000000000000
           0.000000000000           3.237247082117           0.000000000000
           0.000000000000           0.000000000000           9.645482644253

  Mulliken analysis of the total density
  --------------------------------------

    Atom       Charge   Shell Charges
 -----------   ------   -------------------------------------------------------
    1 O    8     8.75   2.00  0.92  2.70  1.04  2.09
    2 H    1     0.63   0.39  0.24
    3 H    1     0.63   0.39  0.23

       Multipole analysis of the density wrt the origin
       ------------------------------------------------

     L   x y z        total         open         nuclear
     -   - - -        -----         ----         -------
     0   0 0 0     -0.000000      0.000000     10.000000

     1   1 0 0      1.028816      0.000000      0.000000
     1   0 1 0      0.005517      0.000000      0.000000
     1   0 0 1      0.000000      0.000000      0.000000

     2   2 0 0     -4.623489      0.000000      2.893527
     2   1 1 0     -0.005299      0.000000     -0.002487
     2   1 0 1      0.000000      0.000000      0.000000
     2   0 2 0     -2.764648      0.000000      6.358461
     2   0 1 1      0.000000      0.000000      0.000000
     2   0 0 2     -5.705920      0.000000      0.000000


 Parallel integral file used       6 records with       0 large values

 -----------------------
 Performance information
 -----------------------

 Timer overhead =  2.00D-07 seconds/call

               Nr. of calls         CPU time (s)                 Wall time (s)                GFlops
             ---------------    -------------------     ------------------------------   -------------------
Name         Min   Avg   Max    Min     Avg     Max     Min     Avg     Max   Mx/calls   Min     Max     Sum
scf: sear     1     1     1   1.50E-2 3.52E-2 6.00E-2  8.51E-2 8.51E-2 8.51E-2 8.51E-2   0.0     0.0     0.0   
scf: fock     1     1     1   5.00E-3 5.00E-3 5.00E-3  5.50E-3 5.50E-3 5.51E-3 5.51E-3   0.0     0.0     0.0   
scf: int-    14    14    14   3.00E-3 3.00E-3 3.00E-3  2.65E-3 2.65E-3 2.65E-3 1.89E-4   0.0     0.0     0.0   
scf: orth     4     4     4    0.0    5.00E-4 1.00E-3  1.69E-3 1.69E-3 1.69E-3 4.22E-4   0.0     0.0     0.0   
scf: diag     1     1     1   1.00E-3 1.50E-3 2.00E-3  1.62E-3 1.62E-3 1.62E-3 1.62E-3   0.0     0.0     0.0   
scf: veci     5     5     5    0.0    1.33E-3 3.00E-3  9.57E-4 9.71E-4 9.76E-4 1.95E-4   0.0     0.0     0.0   
scf: sym      3     3     3   3.00E-3 3.83E-3 4.00E-3  3.91E-3 3.92E-3 3.92E-3 1.31E-3   0.0     0.0     0.0   
scf: sym      2     2     2    0.0    1.67E-4 1.00E-3  8.01E-4 8.01E-4 8.02E-4 4.01E-4   0.0     0.0     0.0   
scf: mull     1     1     1   9.99E-4 1.00E-3 1.00E-3  7.64E-4 7.73E-4 7.76E-4 7.76E-4   0.0     0.0     0.0   
scf: mult     1     1     1    0.0     0.0     0.0     2.14E-4 2.15E-4 2.16E-4 2.16E-4   0.0     0.0     0.0   
scf: moan     1     1     1   3.00E-3 3.50E-3 4.00E-3  3.37E-3 3.48E-3 4.01E-3 4.01E-3   0.0     0.0     0.0   
scf: tota     1     1     1   3.90E-2 5.92E-2 8.40E-2  0.11    0.11    0.11    0.11      0.0     0.0     0.0   

 The average no. of pstat calls per process was 3.50D+01
 with a timing overhead of 7.00D-06s

                   NWChem Extensible Many-Electron Theory Module
                   ---------------------------------------------

              ======================================================
                   This portion of the program was automatically
                  generated by a Tensor Contraction Engine (TCE).
                  The development of this portion of the program
                 and TCE was supported by US Department of Energy,
                Office of Science, Office of Basic Energy Science.
                      TCE is a product of Battelle and PNNL.
              Please cite: S.Hirata, J.Phys.Chem.A 107, 9887 (2003).
              ======================================================

                                E and Grad of 1UBQ


            General Information
            -------------------
      Number of processors :     6
         Wavefunction type : Restricted Hartree-Fock
          No. of electrons :    10
           Alpha electrons :     5
            Beta electrons :     5
           No. of orbitals :    26
            Alpha orbitals :    13
             Beta orbitals :    13
        Alpha frozen cores :     0
         Beta frozen cores :     0
     Alpha frozen virtuals :     0
      Beta frozen virtuals :     0
         Spin multiplicity : singlet 
    Number of AO functions :    13
       Number of AO shells :     9
        Use of symmetry is : on 
      Symmetry adaption is : on 
         Schwarz screening : 0.10D-09

          Correlation Information
          -----------------------
          Calculation type : Coupled-cluster singles & doubles                           
   Perturbative correction : none                                                        
            Max iterations :      100
        Residual threshold : 0.10D-02
     T(0) DIIS level shift : 0.00D+00
     L(0) DIIS level shift : 0.00D+00
     T(1) DIIS level shift : 0.00D+00
     L(1) DIIS level shift : 0.00D+00
     T(R) DIIS level shift : 0.00D+00
     T(I) DIIS level shift : 0.00D+00
   CC-T/L Amplitude update :  5-th order DIIS
                I/O scheme : Global Array Library
        L-threshold :  0.10D-02
        EOM-threshold :  0.10D-02
 no EOMCCSD initial starts read in
 TCE RESTART OPTIONS
 READ_INT:   F
 WRITE_INT:  T
 READ_TA:    F
 WRITE_TA:   T
 READ_XA:    F
 WRITE_XA:   F
 READ_IN3:   F
 WRITE_IN3:  F
 SLICE:      F
 D4D5:       F

            Memory Information
            ------------------
          Available GA space size is     157286231 doubles
          Available MA space size is      26213204 doubles

 Maximum block size supplied by input
 Maximum block size        40 doubles

 tile_dim =      7

 Block   Spin    Irrep     Size     Offset   Alpha
 -------------------------------------------------
   1    alpha     a'     4 doubles       0       1
   2    alpha     a"     1 doubles       4       2
   3    beta      a'     4 doubles       5       1
   4    beta      a"     1 doubles       9       2
   5    alpha     a'     7 doubles      10       5
   6    alpha     a"     1 doubles      17       6
   7    beta      a'     7 doubles      18       5
   8    beta      a"     1 doubles      25       6

 Global array virtual files algorithm will be used

 Parallel file system coherency ......... OK

 #quartets = 1.035D+03 #integrals = 2.447D+03 #direct =  0.0% #cached =100.0%


 Integral file          = ./nwc_gbe_dat.aoints.0
 Record size in doubles =  65536        No. of integs per rec  =  43688
 Max. records in memory =      2        Max. records in file   = 854699
 No. of bits per label  =      8        No. of bits per value  =     64


File balance: exchanges=     0  moved=     0  time=   0.0

  1 ga offset                  31 size_xx_perproc                  31mx    4
  2 ga offset                  62 size_xx_perproc                  31mx    4
  3 ga offset                  93 size_xx_perproc                  32mx    4
 size_1e                  125
  0 ga offset                   0 size_xx_perproc                  31mx    4
 WRITE TENSOR
  filename: ./nwc_gbe_dat.f1int.000000                                                      
  unit nr:       77
  file size:             31
  rec_mem (KB):     2048
  rec_size:         262144
  number of tasks:            1

 Fock matrix recomputed
 1-e file size   =              125
 1-e file name   = ./nwc_gbe_dat.f1int.000000
 Cpu & wall time / sec            0.0            0.1
 4-electron integrals stored in orbital form

 v2    file size   =             6637
 4-index algorithm nr.  15 is used
 imaxsize =       45
 imaxsize ichop =        0
 starting step 1 at                 0.48 secs 
 starting step 2 at                 0.52 secs 
 starting step 3 at                 0.52 secs 
  3 ga offset                4977 size_xx_perproc                1660mx    4
  1 ga offset                1659 size_xx_perproc                1659mx    4
  2 ga offset                3318 size_xx_perproc                1659mx    4
 starting step 4 at                 0.52 secs 
 done step 4 at                 0.52 secs 
  0 ga offset                   0 size_xx_perproc                1659mx    4
 WRITE TENSOR
  filename: ./nwc_gbe_dat.v2int.000000                                                      
  unit nr:      178
  file size:           1659
  rec_mem (KB):     2048
  rec_size:         262144
  number of tasks:            1
 Cpu & wall time / sec            0.0            0.0
 T1-number-of-tasks                    2

 t1 file size   =               29
 t1 file name   = ./nwc_gbe_dat.t1
 t1 file handle =       -998
 T2-number-of-boxes                   13

 t2 file size   =             1840
 t2 file name   = ./nwc_gbe_dat.t2
 t2 file handle =       -996
CCSD iterations
 ---------------------------------------------------------
 Iter          Residuum       Correlation     Cpu    Wall 
 ---------------------------------------------------------
NEW TASK SCHEDULING
CCSD_T1_NTS --- OK
CCSD_T2_NTS --- OK
    1   0.1016950926408  -0.1497280304948     0.0     0.0
    2   0.0393396392471  -0.1508983084796     0.0     0.0
    3   0.0176406208867  -0.1551450008422     0.0     0.0
    4   0.0085636599062  -0.1565720205899     0.0     0.0
    5   0.0043017431785  -0.1572769756243     0.0     0.0
 MICROCYCLE DIIS UPDATE:                    5                    5
  2 ga offset                  14 size_xx_perproc                   7mx    4
  3 ga offset                  21 size_xx_perproc                   8mx    4
  1 ga offset                   7 size_xx_perproc                   7mx    4
    6   0.0005423791928  -0.1579140236602     0.0     0.0
 -----------------------------------------------------------------
 Iterations converged
 CCSD correlation energy / hartree =        -0.157914023660159
 CCSD total energy / hartree       =       -76.076594751235390

 Singles contributions

 Doubles contributions
  0 ga offset                   0 size_xx_perproc                   7mx    4
 WRITE TENSOR
  filename: ./nwc_gbe_dat.t1amp.000000                                                      
  unit nr:       79
  file size:              7
  rec_mem (KB):     2048
  rec_size:         262144
  number of tasks:            1
  1 ga offset                 460 size_xx_perproc                 460mx    4
  2 ga offset                 920 size_xx_perproc                 460mx    4
  3 ga offset                1380 size_xx_perproc                 460mx    4
  0 ga offset                   0 size_xx_perproc                 460mx    4
 WRITE TENSOR
  filename: ./nwc_gbe_dat.t2amp.000000                                                      
  unit nr:       80
  file size:            460
  rec_mem (KB):     2048
  rec_size:         262144
  number of tasks:            1

 Parallel integral file used       6 records with       0 large values


 Task  times  cpu:        0.2s     wall:        0.4s


                                NWChem Input Module
                                -------------------


 Summary of allocated global arrays
-----------------------------------
  No active global arrays



                         GA Statistics for process    0
                         ------------------------------

       create   destroy   get      put      acc     scatter   gather  read&inc
calls:  382      382     2975      376      938        0        0     1572     
number of processes/call 1.52e+00 1.79e+00 1.49e+00 0.00e+00 0.00e+00
bytes total:             3.81e+06 6.40e+05 6.84e+05 0.00e+00 0.00e+00 1.26e+04
bytes remote:            2.66e+06 2.54e+05 5.39e+05 0.00e+00 0.00e+00 7.52e+03
Max memory consumed for GA by this process: 361512 bytes

MA_summarize_allocated_blocks: starting scan ...
MA_summarize_allocated_blocks: scan completed: 0 heap blocks, 0 stack blocks
MA usage statistics:

	allocation statistics:
					      heap	     stack
					      ----	     -----
	current number of blocks	         0	         0
	maximum number of blocks	        18	        42
	current total bytes		         0	         0
	maximum total bytes		   1057456	  16006648
	maximum total K-bytes		      1058	     16007
	maximum total M-bytes		         2	        17


                                     CITATION
                                     --------
                Please cite the following reference when publishing
                           results obtained with NWChem:

                 M. Valiev, E.J. Bylaska, N. Govind, K. Kowalski,
              T.P. Straatsma, H.J.J. van Dam, D. Wang, J. Nieplocha,
                        E. Apra, T.L. Windus, W.A. de Jong
                 "NWChem: a comprehensive and scalable open-source
                  solution for large scale molecular simulations"
                      Comput. Phys. Commun. 181, 1477 (2010)
                           doi:10.1016/j.cpc.2010.04.018

                                      AUTHORS
                                      -------
          E. Apra, E. J. Bylaska, W. A. de Jong, N. Govind, K. Kowalski,
       T. P. Straatsma, M. Valiev, H. J. J. van Dam, D. Wang, T. L. Windus,
        J. Hammond, J. Autschbach, K. Bhaskaran-Nair, J. Brabec, K. Lopata,
    S. A. Fischer, S. Krishnamoorthy, M. Jacquelin, W. Ma, M. Klemm, O. Villa,
      Y. Chen, V. Anisimov, F. Aquino, S. Hirata, M. T. Hackler, V. Konjkov,
      T. Risthaus, M. Malagoli, A. Marenich, A. Otero-de-la-Roza, J. Mullin,
        P. Nichols, R. Peverati, J. Pittner, Y. Zhao, P.-D. Fan, A. Fonari,
       M. Williamson, R. J. Harrison, J. R. Rehr, M. Dupuis, D. Silverstein,
    D. M. A. Smith, J. Nieplocha, V. Tipparaju, M. Krishnan, B. E. Van Kuiken,
        A. Vazquez-Mayagoitia, L. Jensen, M. Swart, Q. Wu, T. Van Voorhis,
     A. A. Auer, M. Nooijen, L. D. Crosby, E. Brown, G. Cisneros, G. I. Fann,
   H. Fruchtl, J. Garza, K. Hirao, R. A. Kendall, J. A. Nichols, K. Tsemekhman,
    K. Wolinski, J. Anchell, D. E. Bernholdt, P. Borowski, T. Clark, D. Clerc,
   H. Dachsel, M. J. O. Deegan, K. Dyall, D. Elwood, E. Glendening, M. Gutowski,
   A. C. Hess, J. Jaffe, B. G. Johnson, J. Ju, R. Kobayashi, R. Kutteh, Z. Lin,
   R. Littlefield, X. Long, B. Meng, T. Nakajima, S. Niu, L. Pollack, M. Rosing,
   K. Glaesemann, G. Sandrone, M. Stave, H. Taylor, G. Thomas, J. H. van Lenthe,
                               A. T. Wong, Z. Zhang.

 Total times  cpu:        0.3s     wall:        0.7s
