/autofs/nccs-svm1_home1/hjjvd
CODAR
NWX_TA
Nwchem-6.6.revision27746-src.2015-10-20.tar.gz
bin
lib
man
summitdev
titan
tksvn
PE 0: MPICH Warning: DMAPP optimizations are not supported if libdmapp is not linked into your application. Please see the mpi man page. Disabling all requested DMAPP optimizations.
 argument  1 = nwc_pweg_ledgrtlsdy.nw
 


============================== echo of input deck ==============================
echo
start nwc_pweg_dat
title "E and Grad of 1UBQ-LEDGRTLSDY"
geometry noautoz
   load format pdb "ledgrtlsdy.pdb"
end
charge +1
nwpw
  simulation_cell
    boundary_conditions aperiodic
    lattice
      # coordinate ranges and lattice parameters.
      # 19 - 36
      # 12 - 27
      #  9 - 26
      lat_a 27.0
      lat_b 25.0
      lat_c 27.0
    end
  end
  xc pbe96
  lmbfgs
end
task pspw energy
================================================================================


                                         
                                         
 
 
              Northwest Computational Chemistry Package (NWChem) 6.8
              ------------------------------------------------------
 
 
                    Environmental Molecular Sciences Laboratory
                       Pacific Northwest National Laboratory
                                Richland, WA 99352
 
                              Copyright (c) 1994-2015
                       Pacific Northwest National Laboratory
                            Battelle Memorial Institute
 
             NWChem is an open-source computational chemistry package
                        distributed under the terms of the
                      Educational Community License (ECL) 2.0
             A copy of the license is included with this distribution
                              in the LICENSE.TXT file
 
                                  ACKNOWLEDGMENT
                                  --------------

            This software and its documentation were developed at the
            EMSL at Pacific Northwest National Laboratory, a multiprogram
            national laboratory, operated for the U.S. Department of Energy
            by Battelle under Contract Number DE-AC05-76RL01830. Support
            for this work was provided by the Department of Energy Office
            of Biological and Environmental Research, Office of Basic
            Energy Sciences, and the Office of Advanced Scientific Computing.


           Job information
           ---------------

    hostname        = nid03814
    program         = /lustre/atlas/scratch/hjjvd/csc249/.3801553/nwchem
    date            = Fri Dec 29 00:04:01 2017

    compiled        = Sat_Dec_09_23:43:41_2017
    source          = /ccs/home/hjjvd/titan/nwchem-1
    nwchem branch   = Development
    nwchem revision = nwchem_on_git-33-g3c4cbf4646b30649e18a6f8f9c6df3a50082e145
    ga revision     = nwchem_on_git-33-g3c4cbf4
    use scalapack   = T
    input           = nwc_pweg_ledgrtlsdy.nw
    prefix          = nwc_pweg_dat.
    data base       = /lustre/atlas/scratch/hjjvd/csc249/.3801553/nwc_pweg_dat.db
    status          = startup
    nproc           =      128
    time left       =     -1s



           Memory information
           ------------------

    heap     =    6553594 doubles =     50.0 Mbytes
    stack    =  104857599 doubles =    800.0 Mbytes
    global   =  268435456 doubles =   2048.0 Mbytes (distinct from heap & stack)
    total    =  379846649 doubles =   2898.0 Mbytes
    verify   = yes
    hardfail = no 


           Directory information
           ---------------------
 
  0 permanent = /lustre/atlas/scratch/hjjvd/csc249/.3801553
  0 scratch   = /lustre/atlas/scratch/hjjvd/csc249/.3801553
 
 
 
 
                                NWChem Input Module
                                -------------------
 
 
                           E and Grad of 1UBQ-LEDGRTLSDY
                           -----------------------------

 Scaling coordinates for geometry "geometry" by  1.889725989
 (inverse scale =  0.529177249)

 C1  symmetry detected
 
 
                             Geometry "geometry" -> ""
                             -------------------------
 
 Output coordinates in angstroms (scale by  1.889725989 to convert to a.u.)
 
  No.       Tag          Charge          X              Y              Z
 ---- ---------------- ---------- -------------- -------------- --------------
    1 N                    7.0000     6.14742005     3.43696566    -1.07702195
    2 C                    6.0000     4.83429839     2.94749989    -0.62456115
    3 C                    6.0000     3.87568442     4.11362427    -0.44793106
    4 O                    8.0000     4.30340662     5.12306688     0.07434600
    5 C                    6.0000     5.04572322     2.07237320     0.61433506
    6 C                    6.0000     6.09728995     0.96905404     0.49649519
    7 C                    6.0000     6.06672688     0.07163059     1.73703784
    8 C                    6.0000     5.87393372     0.09200339    -0.71028820
    9 N                    7.0000     2.62311276     3.94513453    -0.87488944
   10 C                    6.0000     1.64403395     5.04962478    -0.78480081
   11 C                    6.0000     0.72964329     4.83124328     0.38884021
   12 O                    8.0000     0.32796662     3.69570830     0.63079305
   13 C                    6.0000     0.86528694     5.06816151    -2.08521285
   14 C                    6.0000    -0.34324528     6.02619195    -2.20012827
   15 C                    6.0000    -0.41802996     6.64407773    -3.58137821
   16 O                    8.0000    -1.32408305     7.33012570    -4.00789901
   17 O                    8.0000     0.64282909     6.32220163    -4.20316986
   18 N                    7.0000     0.37475195     5.84847947     1.13327333
   19 C                    6.0000    -0.43146178     5.78763096     2.34759737
   20 C                    6.0000    -1.72848709     4.99770133     2.37960558
   21 O                    8.0000    -2.03656031     4.38694297     3.44255531
   22 C                    6.0000    -0.68967365     7.24483397     2.83273861
   23 C                    6.0000     0.51588707     7.82942960     3.54075011
   24 O                    8.0000     0.46698502     9.01220351     3.94423922
   25 O                    8.0000     1.54770491     7.16125534     3.69399859
   26 N                    7.0000    -2.52813171     5.08904060     1.34175607
   27 C                    6.0000    -3.84525007     4.43358773     1.24385942
   28 C                    6.0000    -3.83629895     3.00471250     0.81431147
   29 O                    8.0000    -4.87506925     2.30865621     0.87951822
   30 N                    7.0000    -2.70296213     2.46553304     0.37994508
   31 C                    6.0000    -2.59802891     1.03926762     0.01034396
   32 C                    6.0000    -2.30981829     0.24504182     1.27539337
   33 O                    8.0000    -1.85497071     0.81137341     2.29272381
   34 C                    6.0000    -1.47257252     0.78910529    -0.99606089
   35 C                    6.0000    -1.58157933     1.62808068    -2.28545098
   36 C                    6.0000    -2.77622243     1.02170737    -3.07645368
   37 N                    7.0000    -3.77715721     2.06484744    -3.09252753
   38 C                    6.0000    -5.03458897     2.15546134    -2.78754965
   39 N                    7.0000    -5.79151595     1.17348655    -2.33567902
   40 N                    7.0000    -5.61950615     3.37933344    -2.87713733
   41 N                    7.0000    -2.47259478    -1.05227142     1.20261856
   42 C                    6.0000    -2.18125132    -1.98856284     2.31188109
   43 C                    6.0000    -0.85245818    -2.69781885     1.95884609
   44 O                    8.0000    -0.39820476    -2.63237696     0.82122173
   45 C                    6.0000    -3.30983019    -3.05169572     2.47110479
   46 O                    8.0000    -3.29618430    -3.72766825     1.13983211
   47 C                    6.0000    -4.70549469    -2.53447033     2.75689053
   48 N                    7.0000    -0.26491635    -3.32959741     2.95396640
   49 C                    6.0000     0.97401722    -4.10584850     2.77421417
   50 C                    6.0000     0.69161681    -5.23242915     1.78384603
   51 O                    8.0000     1.51599139    -5.47775158     0.94553734
   52 C                    6.0000     1.42548858    -4.61833829     4.15826252
   53 C                    6.0000     1.74559244    -3.60155948     5.25343527
   54 C                    6.0000     2.19155076    -4.31398935     6.54084734
   55 C                    6.0000     2.93759817    -2.73768125     4.84749592
   56 N                    7.0000    -0.52658703    -5.81009932     1.83683268
   57 C                    6.0000    -0.79833620    -6.91419965     0.88273004
   58 C                    6.0000    -0.76571573    -6.44708302    -0.55556198
   59 O                    8.0000    -0.38947457    -7.23430861    -1.47559212
   60 C                    6.0000    -2.13806754    -7.59986497     1.18587687
   61 O                    8.0000    -3.19320023    -6.68338320     1.11009320
   62 N                    7.0000    -1.11018551    -5.19360266    -0.78877557
   63 C                    6.0000    -1.10814742    -4.62961359    -2.16488682
   64 C                    6.0000     0.26608679    -4.80348712    -2.81888478
   65 O                    8.0000     0.40909007    -4.92021594    -4.03946802
   66 C                    6.0000    -1.56878627    -3.19271163    -2.22427215
   67 C                    6.0000    -3.03953780    -2.93921459    -2.02560868
   68 O                    8.0000    -3.40831925    -1.81438394    -1.63845206
   69 O                    8.0000    -3.80875319    -3.91638345    -2.28830568
   70 N                    7.0000     1.28283272    -4.61283164    -2.02735006
   71 C                    6.0000     2.67913139    -4.74193788    -2.43931074
   72 C                    6.0000     3.23059722    -6.13467794    -2.23191126
   73 O                    8.0000     4.43741612    -6.32490000    -2.48382734
   74 C                    6.0000     3.48485979    -3.71576413    -1.63947938
   75 C                    6.0000     3.09889206    -2.28428022    -1.92741639
   76 C                    6.0000     2.31814878    -1.55030079    -1.03401103
   77 C                    6.0000     3.59442616    -1.65160851    -3.06454983
   78 C                    6.0000     1.98798531    -0.22070516    -1.31698198
   79 C                    6.0000     3.27590433    -0.33341402    -3.35060075
   80 C                    6.0000     2.46804682     0.37261647    -2.46174238
   81 O                    8.0000     2.24186544     1.70058773    -2.77132324
   82 H                    1.0000     6.94469923     3.53896387    -0.35112438
   83 H                    1.0000     4.33163915     2.28264230    -1.40237609
   84 H                    1.0000     5.35459552     2.75573851     1.47266761
   85 H                    1.0000     4.05550749     1.53069631     0.77537218
   86 H                    1.0000     7.10423202     1.49354929     0.39344962
   87 H                    1.0000     5.02085484    -0.36327323     1.86681980
   88 H                    1.0000     6.81762868    -0.77645753     1.61102984
   89 H                    1.0000     6.33884118     0.68669021     2.65733153
   90 H                    1.0000     4.76000663     0.04843382    -0.94736863
   91 H                    1.0000     6.43640016     0.52395226    -1.60304611
   92 H                    1.0000     6.25762706    -0.95939858    -0.49145649
   93 H                    1.0000     2.32063470     2.99260099    -1.29060073
   94 H                    1.0000     2.16632199     6.05048938    -0.62723420
   95 H                    1.0000     1.59701961     5.34660602    -2.91314518
   96 H                    1.0000     0.40769149     4.02720772    -2.15472989
   97 H                    1.0000    -1.30186717     5.44242932    -2.00025017
   98 H                    1.0000    -0.21808264     6.86202852    -1.43466270
   99 H                    1.0000     1.37779783     5.71987636    -3.72477753
  100 H                    1.0000     0.71173663     6.82797463     0.81791393
  101 H                    1.0000     0.21534829     5.15390647     3.03952222
  102 H                    1.0000    -0.93716856     7.89459215     1.92941055
  103 H                    1.0000    -1.55597762     7.22123667     3.57359933
  104 H                    1.0000    -0.41155245     9.59133361     3.78892584
  105 H                    1.0000    -2.19829897     5.68659371     0.50116898
  106 H                    1.0000    -4.33722728     4.48591778     2.27047619
  107 H                    1.0000    -4.40718159     4.99593646     0.42689806
  108 H                    1.0000    -1.82491844     3.09365778     0.29375584
  109 H                    1.0000    -3.57724440     0.71786938    -0.47582082
  110 H                    1.0000    -0.48022913     1.03542669    -0.49178184
  111 H                    1.0000    -1.54853847    -0.30407377    -1.30836476
  112 H                    1.0000    -1.78456781     2.72102385    -2.03379669
  113 H                    1.0000    -0.61561853     1.60102218    -2.89069273
  114 H                    1.0000    -2.45936503     0.75270856    -4.13762050
  115 H                    1.0000    -3.16331082     0.06126533    -2.60054647
  116 H                    1.0000    -3.37744808     3.00622310    -3.44820499
  117 H                    1.0000    -5.36911742     0.18733082    -2.19096773
  118 H                    1.0000    -6.83472320     1.35401213    -2.10997757
  119 H                    1.0000    -5.03754511     4.23549708    -3.19345549
  120 H                    1.0000    -2.84360625    -1.46637355     0.27308162
  121 H                    1.0000    -2.11213456    -1.41691327     3.29603843
  122 H                    1.0000    -3.09707080    -3.69927815     3.38411325
  123 H                    1.0000    -4.32857034    -3.86024240     0.78457706
  124 H                    1.0000    -5.44627820    -3.02321055     2.04203196
  125 H                    1.0000    -4.99165238    -2.78694709     3.83065739
  126 H                    1.0000    -4.72852561    -1.40394017     2.61291432
  127 H                    1.0000    -0.70891298    -3.27650733     3.94029314
  128 H                    1.0000     1.82303117    -3.47688586     2.34597440
  129 H                    1.0000     0.59227980    -5.28678463     4.55570888
  130 H                    1.0000     2.42658452    -5.12313277     3.95164823
  131 H                    1.0000     0.80044822    -2.98384478     5.41230618
  132 H                    1.0000     2.67233928    -5.31330411     6.27574471
  133 H                    1.0000     2.94748221    -3.66318735     7.09358091
  134 H                    1.0000     1.28466100    -4.49441340     7.20882348
  135 H                    1.0000     3.51455727    -3.25440364     4.01046775
  136 H                    1.0000     2.56476281    -1.72372363     4.48266070
  137 H                    1.0000     3.62331445    -2.58984211     5.74663705
  138 H                    1.0000    -1.27522553    -5.48189860     2.54585008
  139 H                    1.0000     0.03972662    -7.67420361     1.02147691
  140 H                    1.0000    -2.31184973    -8.43364485     0.42740481
  141 H                    1.0000    -2.09924294    -8.02657242     2.24203188
  142 H                    1.0000    -3.70109580    -6.78842990     0.14025132
  143 H                    1.0000    -1.40089078    -4.56176306     0.04078465
  144 H                    1.0000    -1.87549459    -5.22591597    -2.76153477
  145 H                    1.0000    -1.00820787    -2.61728231    -1.41500955
  146 H                    1.0000    -1.35090046    -2.85501774    -3.29069120
  147 H                    1.0000    -2.68853991    -1.05261611    -1.45390541
  148 H                    1.0000     1.08090829    -4.34191728    -0.99892071
  149 H                    1.0000     2.75605209    -4.54886595    -3.56066904
  150 H                    1.0000     3.32163939    -3.91642594    -0.52888002
  151 H                    1.0000     4.57596454    -3.83549954    -1.94715268
  152 H                    1.0000     1.96043057    -2.01854836    -0.10344352
  153 H                    1.0000     4.25237375    -2.20941105    -3.74956391
  154 H                    1.0000     1.34602329     0.34878828    -0.62651040
  155 H                    1.0000     3.65490806     0.14762702    -4.26592839
  156 H                    1.0000     1.67422480     2.31140497    -2.11166847
  157 H                    1.0000     5.99797081     4.35819886    -1.48966746
  158 H                    1.0000    -6.57193849     3.48710748    -2.65428672
  159 H                    1.0000     2.62903708    -6.90176095    -1.89344550
 
      Atomic Mass 
      ----------- 
 
      N                 14.003070
      C                 12.000000
      O                 15.994910
      H                  1.007825
 

 Effective nuclear repulsion energy (a.u.)   16401.5265239332

            Nuclear Dipole moment (a.u.) 
            ----------------------------
        X                 Y               Z
 ---------------- ---------------- ----------------
     0.0000000000     0.0000000000    -0.0000000000
 
 
            XYZ format geometry
            -------------------
   159
 geometry
 N                     6.14742005     3.43696566    -1.07702195
 C                     4.83429839     2.94749989    -0.62456115
 C                     3.87568442     4.11362427    -0.44793106
 O                     4.30340662     5.12306688     0.07434600
 C                     5.04572322     2.07237320     0.61433506
 C                     6.09728995     0.96905404     0.49649519
 C                     6.06672688     0.07163059     1.73703784
 C                     5.87393372     0.09200339    -0.71028820
 N                     2.62311276     3.94513453    -0.87488944
 C                     1.64403395     5.04962478    -0.78480081
 C                     0.72964329     4.83124328     0.38884021
 O                     0.32796662     3.69570830     0.63079305
 C                     0.86528694     5.06816151    -2.08521285
 C                    -0.34324528     6.02619195    -2.20012827
 C                    -0.41802996     6.64407773    -3.58137821
 O                    -1.32408305     7.33012570    -4.00789901
 O                     0.64282909     6.32220163    -4.20316986
 N                     0.37475195     5.84847947     1.13327333
 C                    -0.43146178     5.78763096     2.34759737
 C                    -1.72848709     4.99770133     2.37960558
 O                    -2.03656031     4.38694297     3.44255531
 C                    -0.68967365     7.24483397     2.83273861
 C                     0.51588707     7.82942960     3.54075011
 O                     0.46698502     9.01220351     3.94423922
 O                     1.54770491     7.16125534     3.69399859
 N                    -2.52813171     5.08904060     1.34175607
 C                    -3.84525007     4.43358773     1.24385942
 C                    -3.83629895     3.00471250     0.81431147
 O                    -4.87506925     2.30865621     0.87951822
 N                    -2.70296213     2.46553304     0.37994508
 C                    -2.59802891     1.03926762     0.01034396
 C                    -2.30981829     0.24504182     1.27539337
 O                    -1.85497071     0.81137341     2.29272381
 C                    -1.47257252     0.78910529    -0.99606089
 C                    -1.58157933     1.62808068    -2.28545098
 C                    -2.77622243     1.02170737    -3.07645368
 N                    -3.77715721     2.06484744    -3.09252753
 C                    -5.03458897     2.15546134    -2.78754965
 N                    -5.79151595     1.17348655    -2.33567902
 N                    -5.61950615     3.37933344    -2.87713733
 N                    -2.47259478    -1.05227142     1.20261856
 C                    -2.18125132    -1.98856284     2.31188109
 C                    -0.85245818    -2.69781885     1.95884609
 O                    -0.39820476    -2.63237696     0.82122173
 C                    -3.30983019    -3.05169572     2.47110479
 O                    -3.29618430    -3.72766825     1.13983211
 C                    -4.70549469    -2.53447033     2.75689053
 N                    -0.26491635    -3.32959741     2.95396640
 C                     0.97401722    -4.10584850     2.77421417
 C                     0.69161681    -5.23242915     1.78384603
 O                     1.51599139    -5.47775158     0.94553734
 C                     1.42548858    -4.61833829     4.15826252
 C                     1.74559244    -3.60155948     5.25343527
 C                     2.19155076    -4.31398935     6.54084734
 C                     2.93759817    -2.73768125     4.84749592
 N                    -0.52658703    -5.81009932     1.83683268
 C                    -0.79833620    -6.91419965     0.88273004
 C                    -0.76571573    -6.44708302    -0.55556198
 O                    -0.38947457    -7.23430861    -1.47559212
 C                    -2.13806754    -7.59986497     1.18587687
 O                    -3.19320023    -6.68338320     1.11009320
 N                    -1.11018551    -5.19360266    -0.78877557
 C                    -1.10814742    -4.62961359    -2.16488682
 C                     0.26608679    -4.80348712    -2.81888478
 O                     0.40909007    -4.92021594    -4.03946802
 C                    -1.56878627    -3.19271163    -2.22427215
 C                    -3.03953780    -2.93921459    -2.02560868
 O                    -3.40831925    -1.81438394    -1.63845206
 O                    -3.80875319    -3.91638345    -2.28830568
 N                     1.28283272    -4.61283164    -2.02735006
 C                     2.67913139    -4.74193788    -2.43931074
 C                     3.23059722    -6.13467794    -2.23191126
 O                     4.43741612    -6.32490000    -2.48382734
 C                     3.48485979    -3.71576413    -1.63947938
 C                     3.09889206    -2.28428022    -1.92741639
 C                     2.31814878    -1.55030079    -1.03401103
 C                     3.59442616    -1.65160851    -3.06454983
 C                     1.98798531    -0.22070516    -1.31698198
 C                     3.27590433    -0.33341402    -3.35060075
 C                     2.46804682     0.37261647    -2.46174238
 O                     2.24186544     1.70058773    -2.77132324
 H                     6.94469923     3.53896387    -0.35112438
 H                     4.33163915     2.28264230    -1.40237609
 H                     5.35459552     2.75573851     1.47266761
 H                     4.05550749     1.53069631     0.77537218
 H                     7.10423202     1.49354929     0.39344962
 H                     5.02085484    -0.36327323     1.86681980
 H                     6.81762868    -0.77645753     1.61102984
 H                     6.33884118     0.68669021     2.65733153
 H                     4.76000663     0.04843382    -0.94736863
 H                     6.43640016     0.52395226    -1.60304611
 H                     6.25762706    -0.95939858    -0.49145649
 H                     2.32063470     2.99260099    -1.29060073
 H                     2.16632199     6.05048938    -0.62723420
 H                     1.59701961     5.34660602    -2.91314518
 H                     0.40769149     4.02720772    -2.15472989
 H                    -1.30186717     5.44242932    -2.00025017
 H                    -0.21808264     6.86202852    -1.43466270
 H                     1.37779783     5.71987636    -3.72477753
 H                     0.71173663     6.82797463     0.81791393
 H                     0.21534829     5.15390647     3.03952222
 H                    -0.93716856     7.89459215     1.92941055
 H                    -1.55597762     7.22123667     3.57359933
 H                    -0.41155245     9.59133361     3.78892584
 H                    -2.19829897     5.68659371     0.50116898
 H                    -4.33722728     4.48591778     2.27047619
 H                    -4.40718159     4.99593646     0.42689806
 H                    -1.82491844     3.09365778     0.29375584
 H                    -3.57724440     0.71786938    -0.47582082
 H                    -0.48022913     1.03542669    -0.49178184
 H                    -1.54853847    -0.30407377    -1.30836476
 H                    -1.78456781     2.72102385    -2.03379669
 H                    -0.61561853     1.60102218    -2.89069273
 H                    -2.45936503     0.75270856    -4.13762050
 H                    -3.16331082     0.06126533    -2.60054647
 H                    -3.37744808     3.00622310    -3.44820499
 H                    -5.36911742     0.18733082    -2.19096773
 H                    -6.83472320     1.35401213    -2.10997757
 H                    -5.03754511     4.23549708    -3.19345549
 H                    -2.84360625    -1.46637355     0.27308162
 H                    -2.11213456    -1.41691327     3.29603843
 H                    -3.09707080    -3.69927815     3.38411325
 H                    -4.32857034    -3.86024240     0.78457706
 H                    -5.44627820    -3.02321055     2.04203196
 H                    -4.99165238    -2.78694709     3.83065739
 H                    -4.72852561    -1.40394017     2.61291432
 H                    -0.70891298    -3.27650733     3.94029314
 H                     1.82303117    -3.47688586     2.34597440
 H                     0.59227980    -5.28678463     4.55570888
 H                     2.42658452    -5.12313277     3.95164823
 H                     0.80044822    -2.98384478     5.41230618
 H                     2.67233928    -5.31330411     6.27574471
 H                     2.94748221    -3.66318735     7.09358091
 H                     1.28466100    -4.49441340     7.20882348
 H                     3.51455727    -3.25440364     4.01046775
 H                     2.56476281    -1.72372363     4.48266070
 H                     3.62331445    -2.58984211     5.74663705
 H                    -1.27522553    -5.48189860     2.54585008
 H                     0.03972662    -7.67420361     1.02147691
 H                    -2.31184973    -8.43364485     0.42740481
 H                    -2.09924294    -8.02657242     2.24203188
 H                    -3.70109580    -6.78842990     0.14025132
 H                    -1.40089078    -4.56176306     0.04078465
 H                    -1.87549459    -5.22591597    -2.76153477
 H                    -1.00820787    -2.61728231    -1.41500955
 H                    -1.35090046    -2.85501774    -3.29069120
 H                    -2.68853991    -1.05261611    -1.45390541
 H                     1.08090829    -4.34191728    -0.99892071
 H                     2.75605209    -4.54886595    -3.56066904
 H                     3.32163939    -3.91642594    -0.52888002
 H                     4.57596454    -3.83549954    -1.94715268
 H                     1.96043057    -2.01854836    -0.10344352
 H                     4.25237375    -2.20941105    -3.74956391
 H                     1.34602329     0.34878828    -0.62651040
 H                     3.65490806     0.14762702    -4.26592839
 H                     1.67422480     2.31140497    -2.11166847
 H                     5.99797081     4.35819886    -1.48966746
 H                    -6.57193849     3.48710748    -2.65428672
 H                     2.62903708    -6.90176095    -1.89344550
 
 ==============================================================================
                                internuclear distances
 ------------------------------------------------------------------------------
       center one      |      center two      | atomic units |  angstroms
 ------------------------------------------------------------------------------
    2 C                |   1 N                |     2.78283  |     1.47261
    3 C                |   2 C                |     2.87213  |     1.51986
    4 O                |   3 C                |     2.29483  |     1.21437
    5 C                |   2 C                |     2.89407  |     1.53147
    6 C                |   5 C                |     2.88887  |     1.52872
    7 C                |   6 C                |     2.89397  |     1.53142
    8 C                |   6 C                |     2.85056  |     1.50845
    9 N                |   3 C                |     2.52094  |     1.33402
   10 C                |   9 N                |     2.79437  |     1.47872
   11 C                |  10 C                |     2.84166  |     1.50374
   12 O                |  11 C                |     2.32162  |     1.22855
   13 C                |  10 C                |     2.86458  |     1.51587
   14 C                |  13 C                |     2.92241  |     1.54647
   15 C                |  14 C                |     2.86294  |     1.51500
   16 O                |  15 C                |     2.29391  |     1.21388
   17 O                |  15 C                |     2.40200  |     1.27108
   18 N                |  11 C                |     2.47467  |     1.30954
   19 C                |  18 N                |     2.75684  |     1.45886
   20 C                |  19 C                |     2.87045  |     1.51898
   21 O                |  20 C                |     2.38869  |     1.26404
   22 C                |  19 C                |     2.94305  |     1.55739
   23 C                |  22 C                |     2.86367  |     1.51539
   24 O                |  23 C                |     2.36340  |     1.25066
   25 O                |  23 C                |     2.34097  |     1.23879
   26 N                |  20 C                |     2.48188  |     1.31336
   27 C                |  26 N                |     2.78631  |     1.47445
   28 C                |  27 C                |     2.81961  |     1.49207
   29 O                |  28 C                |     2.36615  |     1.25211
   30 N                |  28 C                |     2.50974  |     1.32810
   31 C                |  30 N                |     2.79133  |     1.47711
   32 C                |  31 C                |     2.87475  |     1.52125
   33 O                |  32 C                |     2.36222  |     1.25003
   34 C                |  31 C                |     2.89201  |     1.53039
   35 C                |  34 C                |     2.91428  |     1.54217
   36 C                |  35 C                |     2.94006  |     1.55581
   37 N                |  36 C                |     2.73212  |     1.44578
   38 C                |  37 N                |     2.45108  |     1.29706
   39 N                |  38 C                |     2.49372  |     1.31962
   40 N                |  38 C                |     2.56893  |     1.35942
   41 N                |  32 C                |     2.47461  |     1.30951
   42 C                |  41 N                |     2.79781  |     1.48054
   43 C                |  42 C                |     2.92350  |     1.54705
   44 O                |  43 C                |     2.31815  |     1.22671
   45 C                |  42 C                |     2.94536  |     1.55862
   46 O                |  45 C                |     2.82159  |     1.49312
   47 C                |  45 C                |     2.86409  |     1.51561
   48 N                |  43 C                |     2.48886  |     1.31705
   49 C                |  48 N                |     2.78363  |     1.47304
   50 C                |  49 C                |     2.88439  |     1.52636
   51 O                |  50 C                |     2.26967  |     1.20106
   52 C                |  49 C                |     2.91659  |     1.54339
   53 C                |  52 C                |     2.88807  |     1.52830
   54 C                |  53 C                |     2.90543  |     1.53749
   55 C                |  53 C                |     2.88575  |     1.52707
   56 N                |  50 C                |     2.54975  |     1.34927
   57 C                |  56 N                |     2.80495  |     1.48432
   58 C                |  57 C                |     2.85839  |     1.51260
   59 O                |  58 C                |     2.39611  |     1.26797
   60 C                |  57 C                |     2.90115  |     1.53522
   61 O                |  60 C                |     2.64493  |     1.39964
   62 N                |  58 C                |     2.49577  |     1.32070
   63 C                |  62 N                |     2.81040  |     1.48720
   64 C                |  63 C                |     2.89472  |     1.53182
   65 O                |  64 C                |     2.33280  |     1.23446
   66 C                |  63 C                |     2.85368  |     1.51010
   67 C                |  66 C                |     2.84518  |     1.50560
   68 O                |  67 C                |     2.35355  |     1.24545
   69 O                |  67 C                |     2.40193  |     1.27105
   70 N                |  64 C                |     2.46147  |     1.30255
   71 C                |  70 N                |     2.76187  |     1.46152
   72 C                |  71 C                |     2.85771  |     1.51223
   73 O                |  72 C                |     2.35728  |     1.24742
   74 C                |  71 C                |     2.89194  |     1.53035
   75 C                |  74 C                |     2.85406  |     1.51031
   76 C                |  75 C                |     2.63646  |     1.39516
   77 C                |  75 C                |     2.63134  |     1.39244
   78 C                |  76 C                |     2.64353  |     1.39889
   79 C                |  77 C                |     2.61911  |     1.38597
   80 C                |  78 C                |     2.59998  |     1.37585
   80 C                |  79 C                |     2.63289  |     1.39326
   81 O                |  80 C                |     2.61200  |     1.38221
   82 H                |   1 N                |     2.04666  |     1.08304
   83 H                |   2 C                |     2.15437  |     1.14004
   84 H                |   5 C                |     2.15389  |     1.13979
   85 H                |   5 C                |     2.15451  |     1.14012
   86 H                |   6 C                |     2.15433  |     1.14002
   87 H                |   7 C                |     2.15448  |     1.14010
   88 H                |   7 C                |     2.15378  |     1.13973
   89 H                |   7 C                |     2.15403  |     1.13986
   90 H                |   8 C                |     2.15374  |     1.13971
   91 H                |   8 C                |     2.15459  |     1.14016
   92 H                |   8 C                |     2.15508  |     1.14042
   93 H                |   9 N                |     2.04547  |     1.08242
   94 H                |  10 C                |     2.15407  |     1.13989
   95 H                |  13 C                |     2.15332  |     1.13949
   96 H                |  13 C                |     2.15280  |     1.13922
   97 H                |  14 C                |     2.15436  |     1.14004
   98 H                |  14 C                |     2.15481  |     1.14027
   99 H                |  17 O                |     2.01044  |     1.06388
  100 H                |  18 N                |     2.04616  |     1.08278
  101 H                |  19 C                |     2.15357  |     1.13962
  102 H                |  22 C                |     2.15416  |     1.13993
  103 H                |  22 C                |     2.15455  |     1.14014
  104 H                |  24 O                |     2.01000  |     1.06365
  105 H                |  26 N                |     2.04619  |     1.08280
  106 H                |  27 C                |     2.15356  |     1.13961
  107 H                |  27 C                |     2.15415  |     1.13992
  108 H                |  30 N                |     2.04661  |     1.08302
  109 H                |  31 C                |     2.15339  |     1.13952
  110 H                |  34 C                |     2.15438  |     1.14005
  111 H                |  34 C                |     2.15325  |     1.13945
  112 H                |  35 C                |     2.15384  |     1.13976
  113 H                |  35 C                |     2.15473  |     1.14023
  114 H                |  36 C                |     2.15365  |     1.13966
  115 H                |  36 C                |     2.15360  |     1.13964
  116 H                |  37 N                |     2.04620  |     1.08280
  117 H                |  39 N                |     2.04568  |     1.08253
  118 H                |  39 N                |     2.04563  |     1.08250
  119 H                |  40 N                |     2.04558  |     1.08247
  120 H                |  41 N                |     2.04682  |     1.08313
  121 H                |  42 C                |     2.15472  |     1.14023
  122 H                |  45 C                |     2.15314  |     1.13939
  124 H                |  47 C                |     2.15350  |     1.13958
  125 H                |  47 C                |     2.15346  |     1.13956
  126 H                |  47 C                |     2.15409  |     1.13989
  127 H                |  48 N                |     2.04649  |     1.08296
  128 H                |  49 C                |     2.15446  |     1.14009
  129 H                |  52 C                |     2.15381  |     1.13975
  130 H                |  52 C                |     2.15437  |     1.14004
  131 H                |  53 C                |     2.15471  |     1.14022
  132 H                |  54 C                |     2.15467  |     1.14020
  133 H                |  54 C                |     2.15503  |     1.14039
  134 H                |  54 C                |     2.15561  |     1.14070
  135 H                |  55 C                |     2.15503  |     1.14039
  136 H                |  55 C                |     2.15480  |     1.14027
  137 H                |  55 C                |     2.15505  |     1.14040
  138 H                |  56 N                |     2.04482  |     1.08207
  139 H                |  57 C                |     2.15396  |     1.13983
  140 H                |  60 C                |     2.15517  |     1.14047
  141 H                |  60 C                |     2.15383  |     1.13976
  143 H                |  62 N                |     2.04571  |     1.08254
  144 H                |  63 C                |     2.15494  |     1.14035
  145 H                |  66 C                |     2.15485  |     1.14030
  146 H                |  66 C                |     2.15359  |     1.13963
  147 H                |  68 O                |     2.01097  |     1.06416
  148 H                |  70 N                |     2.04565  |     1.08251
  149 H                |  71 C                |     2.15515  |     1.14046
  150 H                |  74 C                |     2.15490  |     1.14032
  151 H                |  74 C                |     2.15421  |     1.13996
  152 H                |  76 C                |     2.08142  |     1.10144
  153 H                |  77 C                |     2.08152  |     1.10149
  154 H                |  78 C                |     2.08144  |     1.10145
  155 H                |  79 C                |     2.08116  |     1.10130
  156 H                |  81 O                |     2.00921  |     1.06323
  157 H                |   1 N                |     1.92834  |     1.02043
  158 H                |  40 N                |     1.85963  |     0.98408
  159 H                |  72 C                |     1.95004  |     1.03192
 ------------------------------------------------------------------------------
                         number of included internuclear distances:        157
 ==============================================================================



 ==============================================================================
                                 internuclear angles
 ------------------------------------------------------------------------------
        center 1       |       center 2       |       center 3       |  degrees
 ------------------------------------------------------------------------------
    2 C                |   1 N                |  82 H                |   118.80
    2 C                |   1 N                | 157 H                |   107.08
   82 H                |   1 N                | 157 H                |   107.09
    1 N                |   2 C                |   3 C                |   110.07
    1 N                |   2 C                |   5 C                |   108.38
    1 N                |   2 C                |  83 H                |   112.17
    3 C                |   2 C                |   5 C                |   115.56
    3 C                |   2 C                |  83 H                |   104.40
    5 C                |   2 C                |  83 H                |   106.23
    2 C                |   3 C                |   4 O                |   117.75
    2 C                |   3 C                |   9 N                |   117.27
    4 O                |   3 C                |   9 N                |   124.98
    2 C                |   5 C                |   6 C                |   116.42
    2 C                |   5 C                |  84 H                |   107.70
    2 C                |   5 C                |  85 H                |   105.42
    6 C                |   5 C                |  84 H                |   107.72
    6 C                |   5 C                |  85 H                |   105.39
   84 H                |   5 C                |  85 H                |   114.45
    5 C                |   6 C                |   7 C                |   110.29
    5 C                |   6 C                |   8 C                |   112.30
    5 C                |   6 C                |  86 H                |   106.41
    7 C                |   6 C                |   8 C                |   107.72
    7 C                |   6 C                |  86 H                |   111.13
    8 C                |   6 C                |  86 H                |   109.02
    6 C                |   7 C                |  87 H                |   109.52
    6 C                |   7 C                |  88 H                |   109.47
    6 C                |   7 C                |  89 H                |   109.45
   87 H                |   7 C                |  88 H                |   109.46
   87 H                |   7 C                |  89 H                |   109.45
   88 H                |   7 C                |  89 H                |   109.48
    6 C                |   8 C                |  90 H                |   109.47
    6 C                |   8 C                |  91 H                |   109.46
    6 C                |   8 C                |  92 H                |   109.43
   90 H                |   8 C                |  91 H                |   109.50
   90 H                |   8 C                |  92 H                |   109.48
   91 H                |   8 C                |  92 H                |   109.48
    3 C                |   9 N                |  10 C                |   120.52
    3 C                |   9 N                |  93 H                |   119.77
   10 C                |   9 N                |  93 H                |   119.71
    9 N                |  10 C                |  11 C                |   109.98
    9 N                |  10 C                |  13 C                |   107.28
    9 N                |  10 C                |  94 H                |   111.15
   11 C                |  10 C                |  13 C                |   111.03
   11 C                |  10 C                |  94 H                |   107.35
   13 C                |  10 C                |  94 H                |   110.07
   10 C                |  11 C                |  12 O                |   119.13
   10 C                |  11 C                |  18 N                |   119.71
   12 O                |  11 C                |  18 N                |   121.16
   10 C                |  13 C                |  14 C                |   118.22
   10 C                |  13 C                |  95 H                |   107.24
   10 C                |  13 C                |  96 H                |   104.33
   14 C                |  13 C                |  95 H                |   107.25
   14 C                |  13 C                |  96 H                |   104.34
   95 H                |  13 C                |  96 H                |   115.91
   13 C                |  14 C                |  15 C                |   111.04
   13 C                |  14 C                |  97 H                |   109.08
   13 C                |  14 C                |  98 H                |   108.57
   15 C                |  14 C                |  97 H                |   109.10
   15 C                |  14 C                |  98 H                |   108.57
   97 H                |  14 C                |  98 H                |   110.48
   14 C                |  15 C                |  16 O                |   125.99
   14 C                |  15 C                |  17 O                |   107.55
   16 O                |  15 C                |  17 O                |   126.46
   15 C                |  17 O                |  99 H                |   120.00
   11 C                |  18 N                |  19 C                |   126.20
   11 C                |  18 N                | 100 H                |   116.92
   19 C                |  18 N                | 100 H                |   116.88
   18 N                |  19 C                |  20 C                |   120.74
   18 N                |  19 C                |  22 C                |   108.17
   18 N                |  19 C                | 101 H                |   102.41
   20 C                |  19 C                |  22 C                |   109.78
   20 C                |  19 C                | 101 H                |   100.52
   22 C                |  19 C                | 101 H                |   115.17
   19 C                |  20 C                |  21 O                |   118.50
   19 C                |  20 C                |  26 N                |   117.84
   21 O                |  20 C                |  26 N                |   123.35
   19 C                |  22 C                |  23 C                |   112.00
   19 C                |  22 C                | 102 H                |   108.81
   19 C                |  22 C                | 103 H                |   108.00
   23 C                |  22 C                | 102 H                |   108.85
   23 C                |  22 C                | 103 H                |   107.99
  102 H                |  22 C                | 103 H                |   111.21
   22 C                |  23 C                |  24 O                |   118.98
   22 C                |  23 C                |  25 O                |   120.82
   24 O                |  23 C                |  25 O                |   120.18
   23 C                |  24 O                | 104 H                |   120.01
   20 C                |  26 N                |  27 C                |   124.43
   20 C                |  26 N                | 105 H                |   117.80
   27 C                |  26 N                | 105 H                |   117.77
   26 N                |  27 C                |  28 C                |   116.07
   26 N                |  27 C                | 106 H                |   107.78
   26 N                |  27 C                | 107 H                |   105.58
   28 C                |  27 C                | 106 H                |   107.81
   28 C                |  27 C                | 107 H                |   105.61
  106 H                |  27 C                | 107 H                |   114.21
   27 C                |  28 C                |  29 O                |   120.82
   27 C                |  28 C                |  30 N                |   119.21
   29 O                |  28 C                |  30 N                |   119.95
   28 C                |  30 N                |  31 C                |   122.31
   28 C                |  30 N                | 108 H                |   118.84
   31 C                |  30 N                | 108 H                |   118.85
   30 N                |  31 C                |  32 C                |   108.03
   30 N                |  31 C                |  34 C                |   112.00
   30 N                |  31 C                | 109 H                |   108.54
   32 C                |  31 C                |  34 C                |   108.80
   32 C                |  31 C                | 109 H                |   111.74
   34 C                |  31 C                | 109 H                |   107.78
   31 C                |  32 C                |  33 O                |   120.61
   31 C                |  32 C                |  41 N                |   116.58
   33 O                |  32 C                |  41 N                |   122.64
   31 C                |  34 C                |  35 C                |   114.14
   31 C                |  34 C                | 110 H                |   108.30
   31 C                |  34 C                | 111 H                |   106.74
   35 C                |  34 C                | 110 H                |   108.29
   35 C                |  34 C                | 111 H                |   106.74
  110 H                |  34 C                | 111 H                |   112.74
   34 C                |  35 C                |  36 C                |   105.51
   34 C                |  35 C                | 112 H                |   110.47
   34 C                |  35 C                | 113 H                |   111.78
   36 C                |  35 C                | 112 H                |   110.44
   36 C                |  35 C                | 113 H                |   111.80
  112 H                |  35 C                | 113 H                |   106.91
   35 C                |  36 C                |  37 N                |   104.84
   35 C                |  36 C                | 114 H                |   110.60
   35 C                |  36 C                | 115 H                |   112.15
   37 N                |  36 C                | 114 H                |   110.64
   37 N                |  36 C                | 115 H                |   112.18
  114 H                |  36 C                | 115 H                |   106.52
   36 C                |  37 N                |  38 C                |   135.97
   36 C                |  37 N                | 116 H                |   112.05
   38 C                |  37 N                | 116 H                |   111.99
   37 N                |  38 C                |  39 N                |   125.77
   37 N                |  38 C                |  40 N                |   117.68
   39 N                |  38 C                |  40 N                |   116.47
   38 C                |  39 N                | 117 H                |   119.99
   38 C                |  39 N                | 118 H                |   120.00
  117 H                |  39 N                | 118 H                |   120.01
   38 C                |  40 N                | 119 H                |   120.00
   38 C                |  40 N                | 158 H                |   120.01
  119 H                |  40 N                | 158 H                |   119.99
   32 C                |  41 N                |  42 C                |   124.08
   32 C                |  41 N                | 120 H                |   117.97
   42 C                |  41 N                | 120 H                |   117.94
   41 N                |  42 C                |  43 C                |   106.74
   41 N                |  42 C                |  45 C                |   111.43
   41 N                |  42 C                | 121 H                |   109.97
   43 C                |  42 C                |  45 C                |   109.42
   43 C                |  42 C                | 121 H                |   112.01
   45 C                |  42 C                | 121 H                |   107.32
   42 C                |  43 C                |  44 O                |   120.35
   42 C                |  43 C                |  48 N                |   115.51
   44 O                |  43 C                |  48 N                |   124.13
   42 C                |  45 C                |  46 O                |   102.19
   42 C                |  45 C                |  47 C                |   116.95
   42 C                |  45 C                | 122 H                |   109.53
   46 O                |  45 C                |  47 C                |   109.33
   46 O                |  45 C                | 122 H                |   117.09
   47 C                |  45 C                | 122 H                |   102.40
   45 C                |  47 C                | 124 H                |   109.51
   45 C                |  47 C                | 125 H                |   109.47
   45 C                |  47 C                | 126 H                |   109.47
  124 H                |  47 C                | 125 H                |   109.44
  124 H                |  47 C                | 126 H                |   109.45
  125 H                |  47 C                | 126 H                |   109.49
   43 C                |  48 N                |  49 C                |   122.40
   43 C                |  48 N                | 127 H                |   118.80
   49 C                |  48 N                | 127 H                |   118.80
   48 N                |  49 C                |  50 C                |   108.21
   48 N                |  49 C                |  52 C                |   108.15
   48 N                |  49 C                | 128 H                |   112.42
   50 C                |  49 C                |  52 C                |   113.01
   50 C                |  49 C                | 128 H                |   107.53
   52 C                |  49 C                | 128 H                |   107.59
   49 C                |  50 C                |  51 O                |   118.47
   49 C                |  50 C                |  56 N                |   117.23
   51 O                |  50 C                |  56 N                |   124.03
   49 C                |  52 C                |  53 C                |   118.88
   49 C                |  52 C                | 129 H                |   107.07
   49 C                |  52 C                | 130 H                |   103.97
   53 C                |  52 C                | 129 H                |   107.06
   53 C                |  52 C                | 130 H                |   103.92
  129 H                |  52 C                | 130 H                |   116.45
   52 C                |  53 C                |  54 C                |   110.64
   52 C                |  53 C                |  55 C                |   110.45
   52 C                |  53 C                | 131 H                |   106.66
   54 C                |  53 C                |  55 C                |   104.97
   54 C                |  53 C                | 131 H                |   112.01
   55 C                |  53 C                | 131 H                |   112.19
   53 C                |  54 C                | 132 H                |   109.50
   53 C                |  54 C                | 133 H                |   109.49
   53 C                |  54 C                | 134 H                |   109.45
  132 H                |  54 C                | 133 H                |   109.47
  132 H                |  54 C                | 134 H                |   109.44
  133 H                |  54 C                | 134 H                |   109.48
   53 C                |  55 C                | 135 H                |   109.49
   53 C                |  55 C                | 136 H                |   109.44
   53 C                |  55 C                | 137 H                |   109.46
  135 H                |  55 C                | 136 H                |   109.48
  135 H                |  55 C                | 137 H                |   109.46
  136 H                |  55 C                | 137 H                |   109.49
   50 C                |  56 N                |  57 C                |   117.29
   50 C                |  56 N                | 138 H                |   121.37
   57 C                |  56 N                | 138 H                |   121.34
   56 N                |  57 C                |  58 C                |   112.18
   56 N                |  57 C                |  60 C                |   111.41
   56 N                |  57 C                | 139 H                |   106.45
   58 C                |  57 C                |  60 C                |   110.15
   58 C                |  57 C                | 139 H                |   107.81
   60 C                |  57 C                | 139 H                |   108.65
   57 C                |  58 C                |  59 O                |   120.31
   57 C                |  58 C                |  62 N                |   117.09
   59 O                |  58 C                |  62 N                |   122.58
   57 C                |  60 C                |  61 O                |   110.78
   57 C                |  60 C                | 140 H                |   109.16
   57 C                |  60 C                | 141 H                |   108.69
   61 O                |  60 C                | 140 H                |   109.14
   61 O                |  60 C                | 141 H                |   108.72
  140 H                |  60 C                | 141 H                |   110.35
   58 C                |  62 N                |  63 C                |   121.53
   58 C                |  62 N                | 143 H                |   119.25
   63 C                |  62 N                | 143 H                |   119.22
   62 N                |  63 C                |  64 C                |   110.69
   62 N                |  63 C                |  66 C                |   113.38
   62 N                |  63 C                | 144 H                |   106.55
   64 C                |  63 C                |  66 C                |   111.40
   64 C                |  63 C                | 144 H                |   108.72
   66 C                |  63 C                | 144 H                |   105.77
   63 C                |  64 C                |  65 O                |   122.47
   63 C                |  64 C                |  70 N                |   115.10
   65 O                |  64 C                |  70 N                |   121.62
   63 C                |  66 C                |  67 C                |   116.94
   63 C                |  66 C                | 145 H                |   107.60
   63 C                |  66 C                | 146 H                |   105.10
   67 C                |  66 C                | 145 H                |   107.55
   67 C                |  66 C                | 146 H                |   105.09
  145 H                |  66 C                | 146 H                |   114.87
   66 C                |  67 C                |  68 O                |   118.84
   66 C                |  67 C                |  69 O                |   115.75
   68 O                |  67 C                |  69 O                |   125.41
   67 C                |  68 O                | 147 H                |   120.01
   64 C                |  70 N                |  71 C                |   124.16
   64 C                |  70 N                | 148 H                |   117.93
   71 C                |  70 N                | 148 H                |   117.91
   70 N                |  71 C                |  72 C                |   113.02
   70 N                |  71 C                |  74 C                |   107.24
   70 N                |  71 C                | 149 H                |   109.06
   72 C                |  71 C                |  74 C                |   110.73
   72 C                |  71 C                | 149 H                |   105.44
   74 C                |  71 C                | 149 H                |   111.40
   71 C                |  72 C                |  73 O                |   117.75
   71 C                |  72 C                | 159 H                |   121.13
   73 O                |  72 C                | 159 H                |   121.12
   71 C                |  74 C                |  75 C                |   113.66
   71 C                |  74 C                | 150 H                |   108.40
   71 C                |  74 C                | 151 H                |   107.00
   75 C                |  74 C                | 150 H                |   108.41
   75 C                |  74 C                | 151 H                |   107.02
  150 H                |  74 C                | 151 H                |   112.42
   74 C                |  75 C                |  76 C                |   121.30
   74 C                |  75 C                |  77 C                |   119.70
   76 C                |  75 C                |  77 C                |   118.89
   75 C                |  76 C                |  78 C                |   120.17
   75 C                |  76 C                | 152 H                |   119.94
   78 C                |  76 C                | 152 H                |   119.89
   75 C                |  77 C                |  79 C                |   121.26
   75 C                |  77 C                | 153 H                |   119.36
   79 C                |  77 C                | 153 H                |   119.38
   76 C                |  78 C                |  80 C                |   119.72
   76 C                |  78 C                | 154 H                |   120.14
   80 C                |  78 C                | 154 H                |   120.13
   77 C                |  79 C                |  80 C                |   118.92
   77 C                |  79 C                | 155 H                |   120.52
   80 C                |  79 C                | 155 H                |   120.56
   78 C                |  80 C                |  79 C                |   120.97
   78 C                |  80 C                |  81 O                |   122.93
   79 C                |  80 C                |  81 O                |   116.03
   80 C                |  81 O                | 156 H                |   120.02
 ------------------------------------------------------------------------------
                            number of included internuclear angles:        277
 ==============================================================================



  library name resolved from: environment
  NWCHEM_NWPW_LIBRARY set to: <
 /sw/xk6/nwchem/6.6/sles11.3_pgi15.7.0/src/nwpw/libraryps/>
  library name resolved from: environment
  NWCHEM_NWPW_LIBRARY set to: <
 /sw/xk6/nwchem/6.6/sles11.3_pgi15.7.0/src/nwpw/libraryps/>
  library name resolved from: environment
  NWCHEM_NWPW_LIBRARY set to: <
 /sw/xk6/nwchem/6.6/sles11.3_pgi15.7.0/src/nwpw/libraryps/>
  library name resolved from: environment
  NWCHEM_NWPW_LIBRARY set to: <
 /sw/xk6/nwchem/6.6/sles11.3_pgi15.7.0/src/nwpw/libraryps/>
          ****************************************************
          *                                                  *
          *               NWPW PSPW Calculation              *
          *                                                  *
          * [ (Grassmann/Stiefel manifold implementation)  ] *
          *                                                  *
          *      [ NorthWest Chemistry implementation ]      *
          *                                                  *
          *            version #5.10   06/12/02              *
          *                                                  *
          *    This code was developed by Eric J. Bylaska,   *
          *    and was based upon algorithms and code        *
          *    developed by the group of Prof. John H. Weare *
          *                                                  *
          ****************************************************
     >>>  JOB STARTED       AT Fri Dec 29 00:04:02 2017  <<<
          ================ input data ========================
  library name resolved from: environment
  NWCHEM_NWPW_LIBRARY set to: <
 /sw/xk6/nwchem/6.6/sles11.3_pgi15.7.0/src/nwpw/libraryps/>
 Generating 1d pseudopotential for N   
 
 Generated formatted_filename: 
 /lustre/atlas/scratch/hjjvd/csc249/.3801553/N.vpp
  library name resolved from: environment
  NWCHEM_NWPW_LIBRARY set to: <
 /sw/xk6/nwchem/6.6/sles11.3_pgi15.7.0/src/nwpw/libraryps/>
 Generating 1d pseudopotential for C   
 
 Generated formatted_filename: 
 /lustre/atlas/scratch/hjjvd/csc249/.3801553/C.vpp
  library name resolved from: environment
  NWCHEM_NWPW_LIBRARY set to: <
 /sw/xk6/nwchem/6.6/sles11.3_pgi15.7.0/src/nwpw/libraryps/>
 Generating 1d pseudopotential for O   
 
 Generated formatted_filename: 
 /lustre/atlas/scratch/hjjvd/csc249/.3801553/O.vpp
  library name resolved from: environment
  NWCHEM_NWPW_LIBRARY set to: <
 /sw/xk6/nwchem/6.6/sles11.3_pgi15.7.0/src/nwpw/libraryps/>
 Generating 1d pseudopotential for H   
 
 Generated formatted_filename: 
 /lustre/atlas/scratch/hjjvd/csc249/.3801553/H.vpp
 random planewave guess, initial psi:
 nwc_pweg_dat.movecs                               
 -   spin, nalpha, nbeta:                        1                      226 
                        0

 input psi filename:/lustre/atlas/scratch/hjjvd/csc249/.3801553/nwc_pweg_dat.movecs
 Warning - Gram-Schmidt being performed on psi:    226.0000000000000      
    143.6381233473906         226.0000000000000         82.36187665260940     

 number of processors used:       128
 processor grid           :  32 x   4
 parallel mapping         :2d hilbert
 parallel mapping         :  balanced
 number of threads        :         1
 parallel io              :       off

 options:
      boundary conditions  = aperiodic   (version4)
      electron spin        = restricted
      exchange-correlation = PBE96 (White and Bird) parameterization

 elements involved in the cluster:
      1: N   valence charge:  5.0000  lmax=  2
             comment    : Hamann pseudopotential
             pseudpotential type            :   0
             highest angular component      :   2
             local potential used           :   2
             number of non-local projections:   4
             aperiodic cutoff radius        :  1.000
             cutoff =   0.700   0.700   0.700
 
      2: C   valence charge:  4.0000  lmax=  2
             comment    : Parameterized (J.Phys.Chem., vol 100, page 6966) Hamman psp
             pseudpotential type            :   0
             highest angular component      :   2
             local potential used           :   2
             number of non-local projections:   4
             aperiodic cutoff radius        :  1.000
             cutoff =   0.800   0.850   0.850
 
      3: O   valence charge:  6.0000  lmax=  2
             comment    : Parameterized (Chem.Phys.Lett., vol 322, page 447) Hamman psp
             pseudpotential type            :   0
             highest angular component      :   2
             local potential used           :   2
             number of non-local projections:   4
             aperiodic cutoff radius        :  1.000
             cutoff =   0.700   0.700   0.700
 
      4: H   valence charge:  1.0000  lmax=  1
             comment    : Parameterized (Chem.Phys.Lett., vol 322, page 447) Hamman psp
             pseudpotential type            :   0
             highest angular component      :   1
             local potential used           :   1
             number of non-local projections:   1
             aperiodic cutoff radius        :  1.000
             cutoff =   0.800   0.800
 

 total charge:   1.000

 atomic composition:
     N   :   13     C   :   49     O   :   19     H   :   78

 number of electrons: spin up=   226 (  57 per task)  down=   226 (  57 per task) (Fourier space)
 number of orbitals : spin up=   226 (  57 per task)  down=   226 (  57 per task) (Fourier space)

 supercell:
      cell_name:  cell_default                                      
      lattice:    a1=<  27.000   0.000   0.000 >
                  a2=<   0.000  25.000   0.000 >
                  a3=<   0.000   0.000  27.000 >
      reciprocal: b1=<   0.233   0.000  -0.000 >
                  b2=<  -0.000   0.251  -0.000 >
                  b3=<   0.000   0.000   0.233 >
      lattice:    a=      27.000 b=     25.000 c=      27.000
                  alpha=  90.000 beta=  90.000 gamma=  90.000
                  omega=     18225.0

      density cutoff= 25.000  fft= 64x 60x 64(    54395 waves     1699 per task)
      wavefnc cutoff= 12.500  fft= 64x 60x 64(    19224 waves      600 per task)

 technical parameters:
      time step=      5.80     fictitious mass=  400000.0
      tolerance=0.100E-06 (energy)   0.100E-06 (density)
      maximum iterations =      1000 (   10 inner    100 outer )





== Energy Calculation ==


          ============ Grassmann lmbfgs iteration ============
     >>>  ITERATION STARTED AT Fri Dec 29 00:04:16 2017  <<<
    iter.           Energy         DeltaE       DeltaRho 
    ------------------------------------------------------
     -  15 steepest descent iterations performed
      10   -0.5322868021E+03   -0.59000E+01    0.46612E+02
     -  10 steepest descent iterations performed
      20   -0.5493719172E+03   -0.42026E+00    0.17135E+00
     -  10 steepest descent iterations performed
      30   -0.5510959691E+03   -0.57314E-01    0.14921E-01
     -  10 steepest descent iterations performed
      40   -0.5514008915E+03   -0.16467E-01    0.24142E-02
     -  10 steepest descent iterations performed
      50   -0.5515045727E+03   -0.68309E-02    0.83612E-03
      60   -0.5515726137E+03   -0.37533E-02    0.12990E-02
      70   -0.5516083562E+03   -0.31267E-02    0.10476E-02
      80   -0.5516295743E+03   -0.17588E-02    0.66667E-03
      90   -0.5516464192E+03   -0.15492E-02    0.60920E-03
     100   -0.5516595895E+03   -0.95643E-03    0.40311E-03
     110   -0.5516656166E+03   -0.40992E-03    0.14553E-03
     120   -0.5516684590E+03   -0.21069E-03    0.82018E-04
     130   -0.5516699671E+03   -0.11049E-03    0.31729E-04
     140   -0.5516707968E+03   -0.65561E-04    0.19226E-04
     150   -0.5516712662E+03   -0.33470E-04    0.11872E-04
     160   -0.5516714992E+03   -0.16673E-04    0.40765E-05
     170   -0.5516716168E+03   -0.86918E-05    0.22175E-05
     180   -0.5516716818E+03   -0.50603E-05    0.12213E-05
     190   -0.5516717181E+03   -0.25103E-05    0.62357E-06
     200   -0.5516717338E+03   -0.99584E-06    0.27603E-06
     210   -0.5516717398E+03   -0.37929E-06    0.11441E-06
     220   -0.5516717424E+03   -0.18678E-06    0.41644E-07
     230   -0.5516717439E+03   -0.11929E-06    0.27898E-07
     240   -0.5516717442E+03   -0.96628E-07    0.18955E-08
  *** tolerance ok. iteration terminated
     >>>  ITERATION ENDED   AT Fri Dec 29 00:09:19 2017  <<<


==  Summary Of Results  ==
 
 number of electrons: spin up=  226.00000  down=  226.00000 (real space)

 total     energy    :  -0.5516717442E+03 (   -0.34696E+01/ion)
 total orbital energy:  -0.8471147083E+02 (   -0.37483E+00/electron)
 hartree   energy    :   0.9381474105E+04 (    0.41511E+02/electron)
 exc-corr  energy    :  -0.1972122133E+03 (   -0.87262E+00/electron)
 ion-ion   energy    :   0.8855425769E+04 (    0.55695E+02/ion)

 kinetic (planewave) :   0.4381636799E+03 (    0.19388E+01/electron)
 V_local (planewave) :  -0.1902553939E+05 (   -0.84184E+02/electron)
 V_nl    (planewave) :  -0.3983699183E+01 (   -0.17627E-01/electron)
 V_Coul  (planewave) :   0.1876294821E+05 (    0.83022E+02/electron)
 V_xc.   (planewave) :  -0.2563002753E+03 (   -0.11341E+01/electron)
 Virial Coefficient  :  -0.1193332936E+01

 orbital energies:
     0.1951321E+00 (   5.310eV)
     0.1905381E+00 (   5.185eV)
     0.1839956E+00 (   5.007eV)
     0.1833212E+00 (   4.988eV)
     0.1803705E+00 (   4.908eV)
     0.1763051E+00 (   4.798eV)
     0.1687077E+00 (   4.591eV)
     0.1606325E+00 (   4.371eV)
     0.1584575E+00 (   4.312eV)
     0.1579505E+00 (   4.298eV)
     0.1506208E+00 (   4.099eV)
     0.1462875E+00 (   3.981eV)
     0.1434034E+00 (   3.902eV)
     0.1403585E+00 (   3.819eV)
     0.1340029E+00 (   3.646eV)
     0.1306742E+00 (   3.556eV)
     0.1265079E+00 (   3.442eV)
     0.1204465E+00 (   3.278eV)
     0.1170375E+00 (   3.185eV)
     0.1137391E+00 (   3.095eV)
     0.1113921E+00 (   3.031eV)
     0.1053291E+00 (   2.866eV)
     0.1039758E+00 (   2.829eV)
     0.9994247E-01 (   2.720eV)
     0.9680608E-01 (   2.634eV)
     0.9109035E-01 (   2.479eV)
     0.8721643E-01 (   2.373eV)
     0.8686964E-01 (   2.364eV)
     0.8547514E-01 (   2.326eV)
     0.8471602E-01 (   2.305eV)
     0.8294883E-01 (   2.257eV)
     0.7728782E-01 (   2.103eV)
     0.7195927E-01 (   1.958eV)
     0.7044934E-01 (   1.917eV)
     0.6834339E-01 (   1.860eV)
     0.6770949E-01 (   1.842eV)
     0.6639374E-01 (   1.807eV)
     0.5890900E-01 (   1.603eV)
     0.5831320E-01 (   1.587eV)
     0.5523335E-01 (   1.503eV)
     0.5286453E-01 (   1.439eV)
     0.5074146E-01 (   1.381eV)
     0.4837320E-01 (   1.316eV)
     0.4377834E-01 (   1.191eV)
     0.3949870E-01 (   1.075eV)
     0.3698200E-01 (   1.006eV)
     0.3551638E-01 (   0.966eV)
     0.3061343E-01 (   0.833eV)
     0.2853456E-01 (   0.776eV)
     0.2710617E-01 (   0.738eV)
     0.2066673E-01 (   0.562eV)
     0.1797332E-01 (   0.489eV)
     0.8321931E-02 (   0.226eV)
     0.3604626E-02 (   0.098eV)
     0.3524978E-02 (   0.096eV)
    -0.7104179E-03 (  -0.019eV)
    -0.1562973E-02 (  -0.043eV)
    -0.4672940E-02 (  -0.127eV)
    -0.6833760E-02 (  -0.186eV)
    -0.9245704E-02 (  -0.252eV)
    -0.9685607E-02 (  -0.264eV)
    -0.1198174E-01 (  -0.326eV)
    -0.1365736E-01 (  -0.372eV)
    -0.1497108E-01 (  -0.407eV)
    -0.1828979E-01 (  -0.498eV)
    -0.2137272E-01 (  -0.582eV)
    -0.2457243E-01 (  -0.669eV)
    -0.2583837E-01 (  -0.703eV)
    -0.2653193E-01 (  -0.722eV)
    -0.2802008E-01 (  -0.762eV)
    -0.3184843E-01 (  -0.867eV)
    -0.3429793E-01 (  -0.933eV)
    -0.3506699E-01 (  -0.954eV)
    -0.3801535E-01 (  -1.034eV)
    -0.3942383E-01 (  -1.073eV)
    -0.3952892E-01 (  -1.076eV)
    -0.4225666E-01 (  -1.150eV)
    -0.4926740E-01 (  -1.341eV)
    -0.5033337E-01 (  -1.370eV)
    -0.5107076E-01 (  -1.390eV)
    -0.5321594E-01 (  -1.448eV)
    -0.5552172E-01 (  -1.511eV)
    -0.5966189E-01 (  -1.623eV)
    -0.6092637E-01 (  -1.658eV)
    -0.6233675E-01 (  -1.696eV)
    -0.6448588E-01 (  -1.755eV)
    -0.6496882E-01 (  -1.768eV)
    -0.6684725E-01 (  -1.819eV)
    -0.6903417E-01 (  -1.879eV)
    -0.7140573E-01 (  -1.943eV)
    -0.7381103E-01 (  -2.009eV)
    -0.7869874E-01 (  -2.142eV)
    -0.7925490E-01 (  -2.157eV)
    -0.8360045E-01 (  -2.275eV)
    -0.8406576E-01 (  -2.288eV)
    -0.8534104E-01 (  -2.322eV)
    -0.8668865E-01 (  -2.359eV)
    -0.8886009E-01 (  -2.418eV)
    -0.9021433E-01 (  -2.455eV)
    -0.9198201E-01 (  -2.503eV)
    -0.9414125E-01 (  -2.562eV)
    -0.9805001E-01 (  -2.668eV)
    -0.1002757E+00 (  -2.729eV)
    -0.1011838E+00 (  -2.753eV)
    -0.1037993E+00 (  -2.825eV)
    -0.1050345E+00 (  -2.858eV)
    -0.1065800E+00 (  -2.900eV)
    -0.1075729E+00 (  -2.927eV)
    -0.1100835E+00 (  -2.996eV)
    -0.1132086E+00 (  -3.081eV)
    -0.1167430E+00 (  -3.177eV)
    -0.1172072E+00 (  -3.189eV)
    -0.1225283E+00 (  -3.334eV)
    -0.1254156E+00 (  -3.413eV)
    -0.1261864E+00 (  -3.434eV)
    -0.1297275E+00 (  -3.530eV)
    -0.1310328E+00 (  -3.566eV)
    -0.1321176E+00 (  -3.595eV)
    -0.1336858E+00 (  -3.638eV)
    -0.1353789E+00 (  -3.684eV)
    -0.1392148E+00 (  -3.788eV)
    -0.1427691E+00 (  -3.885eV)
    -0.1450867E+00 (  -3.948eV)
    -0.1470617E+00 (  -4.002eV)
    -0.1481229E+00 (  -4.031eV)
    -0.1511193E+00 (  -4.112eV)
    -0.1518439E+00 (  -4.132eV)
    -0.1535098E+00 (  -4.177eV)
    -0.1594893E+00 (  -4.340eV)
    -0.1693614E+00 (  -4.609eV)
    -0.1720828E+00 (  -4.683eV)
    -0.1752202E+00 (  -4.768eV)
    -0.1760669E+00 (  -4.791eV)
    -0.1793438E+00 (  -4.880eV)
    -0.1803230E+00 (  -4.907eV)
    -0.1819120E+00 (  -4.950eV)
    -0.1868089E+00 (  -5.083eV)
    -0.1899194E+00 (  -5.168eV)
    -0.1949615E+00 (  -5.305eV)
    -0.1993879E+00 (  -5.426eV)
    -0.2015996E+00 (  -5.486eV)
    -0.2036791E+00 (  -5.542eV)
    -0.2080617E+00 (  -5.662eV)
    -0.2121986E+00 (  -5.774eV)
    -0.2129600E+00 (  -5.795eV)
    -0.2184922E+00 (  -5.946eV)
    -0.2236366E+00 (  -6.086eV)
    -0.2315959E+00 (  -6.302eV)
    -0.2350006E+00 (  -6.395eV)
    -0.2375166E+00 (  -6.463eV)
    -0.2407657E+00 (  -6.552eV)
    -0.2445816E+00 (  -6.655eV)
    -0.2464224E+00 (  -6.706eV)
    -0.2508772E+00 (  -6.827eV)
    -0.2547459E+00 (  -6.932eV)
    -0.2573983E+00 (  -7.004eV)
    -0.2638172E+00 (  -7.179eV)
    -0.2658718E+00 (  -7.235eV)
    -0.2672143E+00 (  -7.271eV)
    -0.2708907E+00 (  -7.371eV)
    -0.2792464E+00 (  -7.599eV)
    -0.2828076E+00 (  -7.696eV)
    -0.2855253E+00 (  -7.770eV)
    -0.2920845E+00 (  -7.948eV)
    -0.3039529E+00 (  -8.271eV)
    -0.3068690E+00 (  -8.350eV)
    -0.3206803E+00 (  -8.726eV)
    -0.3230531E+00 (  -8.791eV)
    -0.3254684E+00 (  -8.857eV)
    -0.3358834E+00 (  -9.140eV)
    -0.3372281E+00 (  -9.177eV)
    -0.3385677E+00 (  -9.213eV)
    -0.3418516E+00 (  -9.302eV)
    -0.3524285E+00 (  -9.590eV)
    -0.3640161E+00 (  -9.905eV)
    -0.3657868E+00 (  -9.954eV)
    -0.3826559E+00 ( -10.413eV)
    -0.3863705E+00 ( -10.514eV)
    -0.3918366E+00 ( -10.663eV)
    -0.3926365E+00 ( -10.684eV)
    -0.3939317E+00 ( -10.720eV)
    -0.3994642E+00 ( -10.870eV)
    -0.4071022E+00 ( -11.078eV)
    -0.4252392E+00 ( -11.571eV)
    -0.4296836E+00 ( -11.692eV)
    -0.4321711E+00 ( -11.760eV)
    -0.4408310E+00 ( -11.996eV)
    -0.4429543E+00 ( -12.053eV)
    -0.4536663E+00 ( -12.345eV)
    -0.4605601E+00 ( -12.533eV)
    -0.4807042E+00 ( -13.081eV)
    -0.4851205E+00 ( -13.201eV)
    -0.4960896E+00 ( -13.499eV)
    -0.4995284E+00 ( -13.593eV)
    -0.5210842E+00 ( -14.180eV)
    -0.5396245E+00 ( -14.684eV)
    -0.5475467E+00 ( -14.900eV)
    -0.5524305E+00 ( -15.033eV)
    -0.5639418E+00 ( -15.346eV)
    -0.5709677E+00 ( -15.537eV)
    -0.5851353E+00 ( -15.922eV)
    -0.5910140E+00 ( -16.082eV)
    -0.5975984E+00 ( -16.262eV)
    -0.6059359E+00 ( -16.488eV)
    -0.6204988E+00 ( -16.885eV)
    -0.6268082E+00 ( -17.056eV)
    -0.6301854E+00 ( -17.148eV)
    -0.6627174E+00 ( -18.034eV)
    -0.6729544E+00 ( -18.312eV)
    -0.6760482E+00 ( -18.396eV)
    -0.6854510E+00 ( -18.652eV)
    -0.6870568E+00 ( -18.696eV)
    -0.6971681E+00 ( -18.971eV)
    -0.7055855E+00 ( -19.200eV)
    -0.7095932E+00 ( -19.309eV)
    -0.7323919E+00 ( -19.930eV)
    -0.7347814E+00 ( -19.995eV)
    -0.7450679E+00 ( -20.274eV)
    -0.7569962E+00 ( -20.599eV)
    -0.7741292E+00 ( -21.065eV)
    -0.7858243E+00 ( -21.384eV)
    -0.8168569E+00 ( -22.228eV)
    -0.8471740E+00 ( -23.053eV)
    -0.8534114E+00 ( -23.223eV)
    -0.9491661E+00 ( -25.828eV)
    -0.1010683E+01 ( -27.502eV)

 Total PSPW energy     :  -0.5516717442E+03


=== Spin Contamination ===
 
 <Sexact^2> =     0.000000000000000     
 <S^2>      =     0.000000000000000     
 


== Center of Charge ==

spin up     (    0.0169,    0.1296,   -0.0569 )
spin down   (    0.0169,    0.1296,   -0.0569 )
     total  (    0.0169,    0.1296,   -0.0569 )
ionic       (   -0.0111,    0.0090,    0.0199 )


== Molecular Dipole wrt Center of Mass ==

mu   =  (  -12.6442,  -54.4879,   34.7560 ) au
|mu| =    65.8543 au,     167.3752 Debye

 output psi filename:/lustre/atlas/scratch/hjjvd/csc249/.3801553/nwc_pweg_dat.movecs


== Timing ==
[...]
converting .... psi:  191 spin: 1
converting .... psi:  192 spin: 1
converting .... psi:  193 spin: 1
converting .... psi:  194 spin: 1
converting .... psi:  195 spin: 1
converting .... psi:  196 spin: 1
converting .... psi:  197 spin: 1
converting .... psi:  198 spin: 1
converting .... psi:  199 spin: 1
converting .... psi:  200 spin: 1
converting .... psi:  201 spin: 1
converting .... psi:  202 spin: 1
converting .... psi:  203 spin: 1
converting .... psi:  204 spin: 1
converting .... psi:  205 spin: 1
converting .... psi:  206 spin: 1
converting .... psi:  207 spin: 1
converting .... psi:  208 spin: 1
converting .... psi:  209 spin: 1
converting .... psi:  210 spin: 1
converting .... psi:  211 spin: 1
converting .... psi:  212 spin: 1
converting .... psi:  213 spin: 1
converting .... psi:  214 spin: 1
converting .... psi:  215 spin: 1
converting .... psi:  216 spin: 1
converting .... psi:  217 spin: 1
converting .... psi:  218 spin: 1
converting .... psi:  219 spin: 1
converting .... psi:  220 spin: 1
converting .... psi:  221 spin: 1
converting .... psi:  222 spin: 1
converting .... psi:  223 spin: 1
converting .... psi:  224 spin: 1
converting .... psi:  225 spin: 1
converting .... psi:  226 spin: 1

 input psi filename:/lustre/atlas/scratch/hjjvd/csc249/.3801553/nwc_pweg_dat.movecs

 number of processors used:       128
 processor grid           :  64 x   2
 parallel mapping         :2d hilbert
 parallel mapping         :  balanced
 number of threads        :         1
 parallel io              :       off

 options:
      boundary conditions  = aperiodic   (version4)
      electron spin        = restricted
      exchange-correlation = PBE96 (White and Bird) parameterization

 elements involved in the cluster:
      1: N   valence charge:  5.0000  lmax=  2
             comment    : Hamann pseudopotential
             pseudpotential type            :   0
             highest angular component      :   2
             local potential used           :   2
             number of non-local projections:   4
             aperiodic cutoff radius        :  1.000
             cutoff =   0.700   0.700   0.700
 
      2: C   valence charge:  4.0000  lmax=  2
             comment    : Parameterized (J.Phys.Chem., vol 100, page 6966) Hamman psp
             pseudpotential type            :   0
             highest angular component      :   2
             local potential used           :   2
             number of non-local projections:   4
             aperiodic cutoff radius        :  1.000
             cutoff =   0.800   0.850   0.850
 
      3: O   valence charge:  6.0000  lmax=  2
             comment    : Parameterized (Chem.Phys.Lett., vol 322, page 447) Hamman psp
             pseudpotential type            :   0
             highest angular component      :   2
             local potential used           :   2
             number of non-local projections:   4
             aperiodic cutoff radius        :  1.000
             cutoff =   0.700   0.700   0.700
 
      4: H   valence charge:  1.0000  lmax=  1
             comment    : Parameterized (Chem.Phys.Lett., vol 322, page 447) Hamman psp
             pseudpotential type            :   0
             highest angular component      :   1
             local potential used           :   1
             number of non-local projections:   1
             aperiodic cutoff radius        :  1.000
             cutoff =   0.800   0.800
 

 total charge:   1.000

 atomic composition:
     N   :   13     C   :   49     O   :   19     H   :   78

 number of electrons: spin up=   226 ( 113 per task)  down=   226 ( 113 per task) (Fourier space)
 number of orbitals : spin up=   226 ( 113 per task)  down=   226 ( 113 per task) (Fourier space)

 supercell:
      cell_name:  cell_default                                      
      lattice:    a1=<  27.000   0.000   0.000 >
                  a2=<   0.000  25.000   0.000 >
                  a3=<   0.000   0.000  27.000 >
      reciprocal: b1=<   0.233   0.000  -0.000 >
                  b2=<  -0.000   0.251  -0.000 >
                  b3=<   0.000   0.000   0.233 >
      lattice:    a=      27.000 b=     25.000 c=      27.000
                  alpha=  90.000 beta=  90.000 gamma=  90.000
                  omega=     18225.0

      density cutoff=100.000  fft=126x120x126(   435137 waves     6799 per task)
      wavefnc cutoff= 50.000  fft=126x120x126(   153820 waves     2403 per task)

 technical parameters:
      time step=      5.80     fictitious mass=  400000.0
      tolerance=0.100E-06 (energy)   0.100E-06 (density)
      maximum iterations =      1000 (   10 inner    100 outer )





== Energy Calculation ==


          ============ Grassmann lmbfgs iteration ============
     >>>  ITERATION STARTED AT Fri Dec 29 00:30:15 2017  <<<
    iter.           Energy         DeltaE       DeltaRho 
    ------------------------------------------------------
      10   -0.5624511818E+03   -0.39029E-03    0.10362E-01
      20   -0.5624525583E+03   -0.61708E-04    0.90039E-04
      30   -0.5624529095E+03   -0.21211E-04    0.18716E-04
      40   -0.5624530411E+03   -0.84092E-05    0.46434E-05
      50   -0.5624530960E+03   -0.38267E-05    0.11529E-05
      60   -0.5624531226E+03   -0.19694E-05    0.37550E-06
      70   -0.5624531366E+03   -0.10282E-05    0.17258E-06
      80   -0.5624531439E+03   -0.53686E-06    0.84189E-07
      90   -0.5624531477E+03   -0.28439E-06    0.44825E-07
     100   -0.5624531498E+03   -0.15745E-06    0.23917E-07
     110   -0.5624531510E+03   -0.95763E-07    0.14594E-07
  *** tolerance ok. iteration terminated
     >>>  ITERATION ENDED   AT Fri Dec 29 00:46:15 2017  <<<


==  Summary Of Results  ==
 
 number of electrons: spin up=  226.00000  down=  226.00000 (real space)

 total     energy    :  -0.5624531510E+03 (   -0.35374E+01/ion)
 total orbital energy:  -0.8512638664E+02 (   -0.37667E+00/electron)
 hartree   energy    :   0.9392467968E+04 (    0.41560E+02/electron)
 exc-corr  energy    :  -0.1993063048E+03 (   -0.88189E+00/electron)
 ion-ion   energy    :   0.8855425769E+04 (    0.55695E+02/ion)

 kinetic (planewave) :   0.4680128268E+03 (    0.20709E+01/electron)
 V_local (planewave) :  -0.1905677626E+05 (   -0.84322E+02/electron)
 V_nl    (planewave) :  -0.2227715268E+02 (   -0.98571E-01/electron)
 V_Coul  (planewave) :   0.1878493594E+05 (    0.83119E+02/electron)
 V_xc.   (planewave) :  -0.2590217391E+03 (   -0.11461E+01/electron)
 Virial Coefficient  :  -0.1181889003E+01

 orbital energies:
     0.1880429E+00 (   5.117eV)
     0.1826567E+00 (   4.970eV)
     0.1816795E+00 (   4.944eV)
     0.1794340E+00 (   4.883eV)
     0.1708537E+00 (   4.649eV)
     0.1639619E+00 (   4.462eV)
     0.1596550E+00 (   4.344eV)
     0.1516375E+00 (   4.126eV)
     0.1494825E+00 (   4.068eV)
     0.1453817E+00 (   3.956eV)
     0.1367342E+00 (   3.721eV)
     0.1348834E+00 (   3.670eV)
     0.1322939E+00 (   3.600eV)
     0.1308051E+00 (   3.559eV)
     0.1247607E+00 (   3.395eV)
     0.1217422E+00 (   3.313eV)
     0.1164629E+00 (   3.169eV)
     0.1130852E+00 (   3.077eV)
     0.1073382E+00 (   2.921eV)
     0.1047778E+00 (   2.851eV)
     0.1020097E+00 (   2.776eV)
     0.9363001E-01 (   2.548eV)
     0.9241517E-01 (   2.515eV)
     0.9132242E-01 (   2.485eV)
     0.8840532E-01 (   2.406eV)
     0.7745655E-01 (   2.108eV)
     0.7711886E-01 (   2.099eV)
     0.7535992E-01 (   2.051eV)
     0.7141382E-01 (   1.943eV)
     0.6983989E-01 (   1.900eV)
     0.6713294E-01 (   1.827eV)
     0.6627019E-01 (   1.803eV)
     0.6247731E-01 (   1.700eV)
     0.6171472E-01 (   1.679eV)
     0.5964519E-01 (   1.623eV)
     0.5336474E-01 (   1.452eV)
     0.5241399E-01 (   1.426eV)
     0.4976146E-01 (   1.354eV)
     0.4802585E-01 (   1.307eV)
     0.4770138E-01 (   1.298eV)
     0.4384909E-01 (   1.193eV)
     0.4185096E-01 (   1.139eV)
     0.3816301E-01 (   1.038eV)
     0.3147342E-01 (   0.856eV)
     0.2833968E-01 (   0.771eV)
     0.2556435E-01 (   0.696eV)
     0.2343643E-01 (   0.638eV)
     0.2168293E-01 (   0.590eV)
     0.2133182E-01 (   0.580eV)
     0.1356079E-01 (   0.369eV)
     0.1281089E-01 (   0.349eV)
     0.9812514E-02 (   0.267eV)
    -0.3294129E-03 (  -0.009eV)
    -0.1130893E-02 (  -0.031eV)
    -0.3433144E-02 (  -0.093eV)
    -0.8438637E-02 (  -0.230eV)
    -0.1158493E-01 (  -0.315eV)
    -0.1211736E-01 (  -0.330eV)
    -0.1567796E-01 (  -0.427eV)
    -0.1638387E-01 (  -0.446eV)
    -0.1816117E-01 (  -0.494eV)
    -0.1986152E-01 (  -0.540eV)
    -0.2150889E-01 (  -0.585eV)
    -0.2259336E-01 (  -0.615eV)
    -0.2429449E-01 (  -0.661eV)
    -0.2706119E-01 (  -0.736eV)
    -0.2954021E-01 (  -0.804eV)
    -0.3160534E-01 (  -0.860eV)
    -0.3642355E-01 (  -0.991eV)
    -0.3788382E-01 (  -1.031eV)
    -0.4105901E-01 (  -1.117eV)
    -0.4179969E-01 (  -1.137eV)
    -0.4303611E-01 (  -1.171eV)
    -0.4526276E-01 (  -1.232eV)
    -0.4677212E-01 (  -1.273eV)
    -0.4781785E-01 (  -1.301eV)
    -0.4962304E-01 (  -1.350eV)
    -0.5545065E-01 (  -1.509eV)
    -0.5697836E-01 (  -1.550eV)
    -0.5787498E-01 (  -1.575eV)
    -0.5967770E-01 (  -1.624eV)
    -0.6132756E-01 (  -1.669eV)
    -0.6237315E-01 (  -1.697eV)
    -0.6696182E-01 (  -1.822eV)
    -0.6791893E-01 (  -1.848eV)
    -0.7171095E-01 (  -1.951eV)
    -0.7257070E-01 (  -1.975eV)
    -0.7349289E-01 (  -2.000eV)
    -0.7584533E-01 (  -2.064eV)
    -0.7697125E-01 (  -2.095eV)
    -0.8005989E-01 (  -2.179eV)
    -0.8182667E-01 (  -2.227eV)
    -0.8721982E-01 (  -2.373eV)
    -0.8929999E-01 (  -2.430eV)
    -0.9091339E-01 (  -2.474eV)
    -0.9201429E-01 (  -2.504eV)
    -0.9320532E-01 (  -2.536eV)
    -0.9543284E-01 (  -2.597eV)
    -0.9618303E-01 (  -2.617eV)
    -0.9855977E-01 (  -2.682eV)
    -0.1006542E+00 (  -2.739eV)
    -0.1024177E+00 (  -2.787eV)
    -0.1076983E+00 (  -2.931eV)
    -0.1088843E+00 (  -2.963eV)
    -0.1110122E+00 (  -3.021eV)
    -0.1123935E+00 (  -3.058eV)
    -0.1133007E+00 (  -3.083eV)
    -0.1144087E+00 (  -3.113eV)
    -0.1171456E+00 (  -3.188eV)
    -0.1193424E+00 (  -3.247eV)
    -0.1227955E+00 (  -3.341eV)
    -0.1237531E+00 (  -3.368eV)
    -0.1274473E+00 (  -3.468eV)
    -0.1294982E+00 (  -3.524eV)
    -0.1325563E+00 (  -3.607eV)
    -0.1366557E+00 (  -3.719eV)
    -0.1391203E+00 (  -3.786eV)
    -0.1393420E+00 (  -3.792eV)
    -0.1408993E+00 (  -3.834eV)
    -0.1441994E+00 (  -3.924eV)
    -0.1453432E+00 (  -3.955eV)
    -0.1494736E+00 (  -4.067eV)
    -0.1509409E+00 (  -4.107eV)
    -0.1523693E+00 (  -4.146eV)
    -0.1550297E+00 (  -4.219eV)
    -0.1561925E+00 (  -4.250eV)
    -0.1580024E+00 (  -4.299eV)
    -0.1589634E+00 (  -4.326eV)
    -0.1644741E+00 (  -4.476eV)
    -0.1755473E+00 (  -4.777eV)
    -0.1791582E+00 (  -4.875eV)
    -0.1813293E+00 (  -4.934eV)
    -0.1823385E+00 (  -4.962eV)
    -0.1840141E+00 (  -5.007eV)
    -0.1864201E+00 (  -5.073eV)
    -0.1898427E+00 (  -5.166eV)
    -0.1941092E+00 (  -5.282eV)
    -0.1941601E+00 (  -5.283eV)
    -0.1978259E+00 (  -5.383eV)
    -0.2049920E+00 (  -5.578eV)
    -0.2075594E+00 (  -5.648eV)
    -0.2095779E+00 (  -5.703eV)
    -0.2137239E+00 (  -5.816eV)
    -0.2169862E+00 (  -5.905eV)
    -0.2185921E+00 (  -5.948eV)
    -0.2212549E+00 (  -6.021eV)
    -0.2272663E+00 (  -6.184eV)
    -0.2355282E+00 (  -6.409eV)
    -0.2389494E+00 (  -6.502eV)
    -0.2406358E+00 (  -6.548eV)
    -0.2425168E+00 (  -6.599eV)
    -0.2486668E+00 (  -6.767eV)
    -0.2523769E+00 (  -6.868eV)
    -0.2553163E+00 (  -6.948eV)
    -0.2587176E+00 (  -7.040eV)
    -0.2638651E+00 (  -7.180eV)
    -0.2669185E+00 (  -7.263eV)
    -0.2724825E+00 (  -7.415eV)
    -0.2736250E+00 (  -7.446eV)
    -0.2751922E+00 (  -7.488eV)
    -0.2811539E+00 (  -7.651eV)
    -0.2843010E+00 (  -7.736eV)
    -0.2888504E+00 (  -7.860eV)
    -0.2937439E+00 (  -7.993eV)
    -0.3065831E+00 (  -8.343eV)
    -0.3106773E+00 (  -8.454eV)
    -0.3234435E+00 (  -8.801eV)
    -0.3264321E+00 (  -8.883eV)
    -0.3302043E+00 (  -8.985eV)
    -0.3381999E+00 (  -9.203eV)
    -0.3392958E+00 (  -9.233eV)
    -0.3423611E+00 (  -9.316eV)
    -0.3437720E+00 (  -9.355eV)
    -0.3559214E+00 (  -9.685eV)
    -0.3629045E+00 (  -9.875eV)
    -0.3701966E+00 ( -10.074eV)
    -0.3838041E+00 ( -10.444eV)
    -0.3882060E+00 ( -10.564eV)
    -0.3906550E+00 ( -10.630eV)
    -0.3950759E+00 ( -10.751eV)
    -0.3977023E+00 ( -10.822eV)
    -0.4000579E+00 ( -10.886eV)
    -0.4063491E+00 ( -11.057eV)
    -0.4276015E+00 ( -11.636eV)
    -0.4298949E+00 ( -11.698eV)
    -0.4363771E+00 ( -11.875eV)
    -0.4421511E+00 ( -12.032eV)
    -0.4438351E+00 ( -12.077eV)
    -0.4543593E+00 ( -12.364eV)
    -0.4594917E+00 ( -12.504eV)
    -0.4811761E+00 ( -13.094eV)
    -0.4865583E+00 ( -13.240eV)
    -0.4905724E+00 ( -13.349eV)
    -0.5013373E+00 ( -13.642eV)
    -0.5091912E+00 ( -13.856eV)
    -0.5131443E+00 ( -13.963eV)
    -0.5207815E+00 ( -14.171eV)
    -0.5392987E+00 ( -14.675eV)
    -0.5430379E+00 ( -14.777eV)
    -0.5460204E+00 ( -14.858eV)
    -0.5524121E+00 ( -15.032eV)
    -0.5540301E+00 ( -15.076eV)
    -0.5804204E+00 ( -15.794eV)
    -0.5840906E+00 ( -15.894eV)
    -0.5924900E+00 ( -16.123eV)
    -0.6038618E+00 ( -16.432eV)
    -0.6067177E+00 ( -16.510eV)
    -0.6225868E+00 ( -16.942eV)
    -0.6239926E+00 ( -16.980eV)
    -0.6252593E+00 ( -17.014eV)
    -0.6284115E+00 ( -17.100eV)
    -0.6427825E+00 ( -17.491eV)
    -0.6499089E+00 ( -17.685eV)
    -0.6571119E+00 ( -17.881eV)
    -0.6613669E+00 ( -17.997eV)
    -0.6870865E+00 ( -18.697eV)
    -0.6879535E+00 ( -18.720eV)
    -0.6911216E+00 ( -18.807eV)
    -0.7073154E+00 ( -19.247eV)
    -0.7146709E+00 ( -19.447eV)
    -0.7501732E+00 ( -20.413eV)
    -0.7714327E+00 ( -20.992eV)
    -0.8207394E+00 ( -22.334eV)
    -0.8556676E+00 ( -23.284eV)
    -0.9322188E+00 ( -25.367eV)
    -0.1028603E+01 ( -27.990eV)

 Total PSPW energy     :  -0.5624531510E+03


=== Spin Contamination ===
 
 <Sexact^2> =     0.000000000000000     
 <S^2>      =     0.000000000000000     
 


== Center of Charge ==

spin up     (   -0.0001,   -0.0164,   -0.0645 )
spin down   (   -0.0001,   -0.0164,   -0.0645 )
     total  (   -0.0001,   -0.0164,   -0.0645 )
ionic       (   -0.0111,    0.0090,    0.0199 )


== Molecular Dipole wrt Center of Mass ==

mu   =  (   -4.9653,   11.4999,   38.1817 ) au
|mu| =    40.1839 au,     102.1314 Debye

 output psi filename:/lustre/atlas/scratch/hjjvd/csc249/.3801553/nwc_pweg_dat.movecs


== Timing ==

cputime in seconds
  prologue    :   0.979313E+02
  main loop   :   0.961790E+03
  epilogue    :   0.265243E+02
  total       :   0.108625E+04
  cputime/step:   0.381663E+01       (     252 evalulations,     110 linesearches)


Time spent doing                        total          step       percent
  total time                 :   0.108650E+04  0.431149E+01       100.0 %
  i/o time                   :   0.571556E+02  0.226808E+00         5.3 %
  FFTs                       :   0.397573E+02  0.157767E+00         3.7 %
  dot products               :   0.171527E+03  0.680663E+00        15.8 %
  geodesic                   :   0.234550E+03  0.930754E+00        21.6 %
  ffm_dgemm                  :   0.714300E+02  0.283453E+00         6.6 %
  fmf_dgemm                  :   0.116661E+03  0.462939E+00        10.7 %
  mmm_dgemm                  :   0.391991E+01  0.155552E-01         0.4 %
  m_diagonalize              :   0.634472E+01  0.251775E-01         0.6 %
  exchange correlation       :   0.224113E+02  0.889338E-01         2.1 %
  local pseudopotentials     :   0.656060E+00  0.260341E-02         0.1 %
  non-local pseudopotentials :   0.345643E+03  0.137160E+01        31.8 %
  structure factors          :   0.681043E+01  0.270255E-01         0.6 %
  phase factors              :   0.242686E-02  0.963040E-05         0.0 %
  masking and packing        :   0.426239E+02  0.169142E+00         3.9 %
  queue fft                  :   0.232547E+03  0.922805E+00        21.4 %
  queue fft (serial)         :   0.951519E+02  0.377587E+00         8.8 %
  queue fft (message passing):   0.132204E+03  0.524619E+00        12.2 %
  non-local psp FFM          :   0.107603E+03  0.426997E+00         9.9 %
  non-local psp FMF          :   0.226928E+03  0.900509E+00        20.9 %
  non-local psp FFM A        :   0.258994E+01  0.102776E-01         0.2 %
  non-local psp FFM B        :   0.101996E+03  0.404746E+00         9.4 %
 
     >>>  JOB COMPLETED     AT Fri Dec 29 00:46:43 2017  <<<

 Task  times  cpu:     2459.6s     wall:     2561.4s
 
 
                                NWChem Input Module
                                -------------------
 
 
 Summary of allocated global arrays
-----------------------------------
  No active global arrays



                         GA Statistics for process    0
                         ------------------------------

       create   destroy   get      put      acc     scatter   gather  read&inc
calls:    0        0        0        0        0        0        0        0     
number of processes/call 0.00e+00 0.00e+00 0.00e+00 0.00e+00 0.00e+00
bytes total:             0.00e+00 0.00e+00 0.00e+00 0.00e+00 0.00e+00 0.00e+00
bytes remote:            0.00e+00 0.00e+00 0.00e+00 0.00e+00 0.00e+00 0.00e+00
Max memory consumed for GA by this process: 0 bytes
 
MA_summarize_allocated_blocks: starting scan ...
MA_summarize_allocated_blocks: scan completed: 0 heap blocks, 0 stack blocks
MA usage statistics:

	allocation statistics:
					      heap	     stack
					      ----	     -----
	current number of blocks	         0	         0
	maximum number of blocks	       320	        15
	current total bytes		         0	         0
	maximum total bytes		 262448808	  15124632
	maximum total K-bytes		    262449	     15125
	maximum total M-bytes		       263	        16
 
 
                                     CITATION
                                     --------
                Please cite the following reference when publishing
                           results obtained with NWChem:
 
                 M. Valiev, E.J. Bylaska, N. Govind, K. Kowalski,
              T.P. Straatsma, H.J.J. van Dam, D. Wang, J. Nieplocha,
                        E. Apra, T.L. Windus, W.A. de Jong
                 "NWChem: a comprehensive and scalable open-source
                  solution for large scale molecular simulations"
                      Comput. Phys. Commun. 181, 1477 (2010)
                           doi:10.1016/j.cpc.2010.04.018
 
                                      AUTHORS
                                      -------
          E. Apra, E. J. Bylaska, W. A. de Jong, N. Govind, K. Kowalski,
       T. P. Straatsma, M. Valiev, H. J. J. van Dam, D. Wang, T. L. Windus,
        J. Hammond, J. Autschbach, K. Bhaskaran-Nair, J. Brabec, K. Lopata,
    S. A. Fischer, S. Krishnamoorthy, M. Jacquelin, W. Ma, M. Klemm, O. Villa,
      Y. Chen, V. Anisimov, F. Aquino, S. Hirata, M. T. Hackler, V. Konjkov,
      T. Risthaus, M. Malagoli, A. Marenich, A. Otero-de-la-Roza, J. Mullin,
        P. Nichols, R. Peverati, J. Pittner, Y. Zhao, P.-D. Fan, A. Fonari,
       M. Williamson, R. J. Harrison, J. R. Rehr, M. Dupuis, D. Silverstein,
    D. M. A. Smith, J. Nieplocha, V. Tipparaju, M. Krishnan, B. E. Van Kuiken,
        A. Vazquez-Mayagoitia, L. Jensen, M. Swart, Q. Wu, T. Van Voorhis,
     A. A. Auer, M. Nooijen, L. D. Crosby, E. Brown, G. Cisneros, G. I. Fann,
   H. Fruchtl, J. Garza, K. Hirao, R. A. Kendall, J. A. Nichols, K. Tsemekhman,
    K. Wolinski, J. Anchell, D. E. Bernholdt, P. Borowski, T. Clark, D. Clerc,
   H. Dachsel, M. J. O. Deegan, K. Dyall, D. Elwood, E. Glendening, M. Gutowski,
   A. C. Hess, J. Jaffe, B. G. Johnson, J. Ju, R. Kobayashi, R. Kutteh, Z. Lin,
   R. Littlefield, X. Long, B. Meng, T. Nakajima, S. Niu, L. Pollack, M. Rosing,
   K. Glaesemann, G. Sandrone, M. Stave, H. Taylor, G. Thomas, J. H. van Lenthe,
                               A. T. Wong, Z. Zhang.

 Total times  cpu:     2459.8s     wall:     2561.8s
Application 16561162 resources: utime ~326125s, stime ~1786s, Rss ~228156, inblocks ~37106114, outblocks ~45279671
