/autofs/nccs-svm1_home1/hjjvd
CODAR
NWX_TA
Nwchem-6.6.revision27746-src.2015-10-20.tar.gz
bin
lib
man
summitdev
titan
tksvn
PE 0: MPICH Warning: DMAPP optimizations are not supported if libdmapp is not linked into your application. Please see the mpi man page. Disabling all requested DMAPP optimizations.
 argument  1 = nwc_pweg_dgrtl_50.nw
 


============================== echo of input deck ==============================
echo
start nwc_pweg_dat
title "E and Grad of 1UBQ-DGRTL"
geometry noautoz
   load format pdb "dgrtl.pdb"
end
charge +1
nwpw
  simulation_cell
    boundary_conditions aperiodic
    lattice
      # coordinate ranges and lattice parameters.
      # 23 - 36
      # 12 - 25
      #  9 - 23
      lat_a 23.0
      lat_b 23.0
      lat_c 24.0
    end
  end
  xc pbe96
  lmbfgs
  cutoff 200
end
task pspw energy
================================================================================


                                         
                                         
 
 
              Northwest Computational Chemistry Package (NWChem) 6.8
              ------------------------------------------------------
 
 
                    Environmental Molecular Sciences Laboratory
                       Pacific Northwest National Laboratory
                                Richland, WA 99352
 
                              Copyright (c) 1994-2015
                       Pacific Northwest National Laboratory
                            Battelle Memorial Institute
 
             NWChem is an open-source computational chemistry package
                        distributed under the terms of the
                      Educational Community License (ECL) 2.0
             A copy of the license is included with this distribution
                              in the LICENSE.TXT file
 
                                  ACKNOWLEDGMENT
                                  --------------

            This software and its documentation were developed at the
            EMSL at Pacific Northwest National Laboratory, a multiprogram
            national laboratory, operated for the U.S. Department of Energy
            by Battelle under Contract Number DE-AC05-76RL01830. Support
            for this work was provided by the Department of Energy Office
            of Biological and Environmental Research, Office of Basic
            Energy Sciences, and the Office of Advanced Scientific Computing.


           Job information
           ---------------

    hostname        = nid03810
    program         = /lustre/atlas/scratch/hjjvd/csc249/.3808492/nwchem
    date            = Wed Jan  3 19:47:43 2018

    compiled        = Sat_Dec_09_23:43:41_2017
    source          = /ccs/home/hjjvd/titan/nwchem-1
    nwchem branch   = Development
    nwchem revision = nwchem_on_git-33-g3c4cbf4646b30649e18a6f8f9c6df3a50082e145
    ga revision     = nwchem_on_git-33-g3c4cbf4
    use scalapack   = T
    input           = nwc_pweg_dgrtl_50.nw
    prefix          = nwc_pweg_dat.
    data base       = /lustre/atlas/scratch/hjjvd/csc249/.3808492/nwc_pweg_dat.db
    status          = startup
    nproc           =      512
    time left       =     -1s



           Memory information
           ------------------

    heap     =    6553598 doubles =     50.0 Mbytes
    stack    =  104857595 doubles =    800.0 Mbytes
    global   =  268435456 doubles =   2048.0 Mbytes (distinct from heap & stack)
    total    =  379846649 doubles =   2898.0 Mbytes
    verify   = yes
    hardfail = no 


           Directory information
           ---------------------
 
  0 permanent = /lustre/atlas/scratch/hjjvd/csc249/.3808492
  0 scratch   = /lustre/atlas/scratch/hjjvd/csc249/.3808492
 
 
 
 
                                NWChem Input Module
                                -------------------
 
 
                             E and Grad of 1UBQ-DGRTL
                             ------------------------

 Scaling coordinates for geometry "geometry" by  1.889725989
 (inverse scale =  0.529177249)

 C1  symmetry detected
 
 
                             Geometry "geometry" -> ""
                             -------------------------
 
 Output coordinates in angstroms (scale by  1.889725989 to convert to a.u.)
 
  No.       Tag          Charge          X              Y              Z
 ---- ---------------- ---------- -------------- -------------- --------------
    1 N                    7.0000     2.32906152     4.50497561    -1.74104900
    2 C                    6.0000     2.62746889     4.39747324    -0.31708893
    3 C                    6.0000     1.58316452     3.88229451     0.65826088
    4 O                    8.0000     1.96536223     3.17203504     1.63153031
    5 C                    6.0000     3.17093495     5.77310393     0.17051833
    6 C                    6.0000     4.61984434     5.98216592    -0.22109840
    7 O                    8.0000     5.17470143     7.06570304     0.06565919
    8 O                    8.0000     5.24172042     5.10923915    -0.84227389
    9 N                    7.0000     0.34751118     4.30287770     0.51273907
   10 C                    6.0000    -0.76651384     3.94357402     1.40931708
   11 C                    6.0000    -1.42962453     2.63454319     1.13913479
   12 O                    8.0000    -2.25461301     2.15397265     1.94921872
   13 N                    7.0000    -1.11857252     1.96615596     0.03444200
   14 C                    6.0000    -1.67514052     0.63072531    -0.26339357
   15 C                    6.0000    -0.80180935    -0.40750593     0.42477687
   16 O                    8.0000     0.35946097    -0.12200259     0.78880720
   17 C                    6.0000    -1.69557624     0.34016866    -1.76580603
   18 C                    6.0000    -2.45516489     1.39076317    -2.60100976
   19 C                    6.0000    -3.96055504     1.17262312    -2.27426608
   20 N                    7.0000    -4.36917204     2.37842516    -1.58917952
   21 C                    6.0000    -4.96902685     2.65972446    -0.47410020
   22 N                    7.0000    -5.40925757     1.78228945     0.40777548
   23 N                    7.0000    -5.10570620     3.97134461    -0.14396636
   24 N                    7.0000    -1.29538921    -1.61649224     0.52247552
   25 C                    6.0000    -0.56570687    -2.76611350     1.10378494
   26 C                    6.0000    -0.11142581    -3.65076119    -0.08128729
   27 O                    8.0000    -0.58915638    -3.48311333    -1.19864386
   28 C                    6.0000    -1.47918793    -3.59968258     2.05247294
   29 O                    8.0000    -2.57683571    -4.02927961     1.13594267
   30 C                    6.0000    -2.07456032    -2.87604938     3.24367474
   31 N                    7.0000     0.81388643    -4.54470352     0.20027685
   32 C                    6.0000     1.31248684    -5.50593605    -0.79835355
   33 C                    6.0000     0.14051370    -6.37085985    -1.25458680
   34 O                    8.0000     0.03870186    -6.62648525    -2.42370100
   35 C                    6.0000     2.45042237    -6.32411125    -0.15201459
   36 C                    6.0000     3.69261129    -5.59040550     0.35231822
   37 C                    6.0000     4.70766680    -6.58422804     0.94040330
   38 C                    6.0000     4.42413898    -4.91980436    -0.80833304
   39 H                    1.0000     2.58480150     5.43884488    -2.22572028
   40 H                    1.0000     3.37933543     3.54155260    -0.28833884
   41 H                    1.0000     2.54086211     6.60242560    -0.29281178
   42 H                    1.0000     3.10728899     5.79370085     1.30869185
   43 H                    1.0000     4.63044578     7.82303659     0.57710194
   44 H                    1.0000     0.13215710     4.95838079    -0.32175738
   45 H                    1.0000    -0.36130414     3.91589997     2.47409933
   46 H                    1.0000    -1.56787139     4.73520305     1.23444982
   47 H                    1.0000    -0.43275172     2.41605737    -0.67278395
   48 H                    1.0000    -2.75019383     0.59403206     0.11267823
   49 H                    1.0000    -0.61844170     0.29870313    -2.13699168
   50 H                    1.0000    -2.24657428    -0.64792209    -1.90153682
   51 H                    1.0000    -2.13236094     2.44339667    -2.30635858
   52 H                    1.0000    -2.24324701     1.27875011    -3.71576259
   53 H                    1.0000    -4.56233961     1.03107077    -3.23168567
   54 H                    1.0000    -4.13226686     0.23968514    -1.64266829
   55 H                    1.0000    -4.10975280     3.27006952    -2.14607627
   56 H                    1.0000    -5.28087180     0.72266712     0.22726890
   57 H                    1.0000    -5.89890886     2.12206391     1.31143854
   58 H                    1.0000    -4.71938051     4.73840703    -0.80284397
   59 H                    1.0000    -2.30014202    -1.78622743     0.15528244
   60 H                    1.0000     0.31698638    -2.39451640     1.72256942
   61 H                    1.0000    -0.86489037    -4.42176299     2.54748436
   62 H                    1.0000    -3.54691947    -3.89542208     1.63656496
   63 H                    1.0000    -3.19425144    -3.08211919     3.29344446
   64 H                    1.0000    -1.57788383    -3.24634598     4.20012593
   65 H                    1.0000    -1.89944599    -1.75508254     3.13355521
   66 H                    1.0000     1.22300061    -4.57417275     1.20254884
   67 H                    1.0000     1.73959766    -4.99148459    -1.72178413
   68 H                    1.0000     2.00208582    -6.87456009     0.73962515
   69 H                    1.0000     2.84186606    -6.97212753    -1.00439170
   70 H                    1.0000     3.33405558    -4.83613543     1.12860648
   71 H                    1.0000     4.58444703    -7.59838715     0.43407813
   72 H                    1.0000     5.76562815    -6.19704927     0.76348413
   73 H                    1.0000     4.52554617    -6.69481701     2.06102641
   74 H                    1.0000     4.08863545    -5.38948867    -1.79186445
   75 H                    1.0000     4.18170513    -3.80563401    -0.81677499
   76 H                    1.0000     5.54843388    -5.06355819    -0.68258005
   77 H                    1.0000     1.32610230     4.36202290    -1.85742047
   78 H                    1.0000    -5.55568790     4.22360296     0.69405940
   79 H                    1.0000    -0.54852316    -6.72763283    -0.57488815
 
      Atomic Mass 
      ----------- 
 
      N                 14.003070
      C                 12.000000
      O                 15.994910
      H                  1.007825
 

 Effective nuclear repulsion energy (a.u.)    4475.2626654164

            Nuclear Dipole moment (a.u.) 
            ----------------------------
        X                 Y               Z
 ---------------- ---------------- ----------------
     0.0000000000    -0.0000000000     0.0000000000
 
 
            XYZ format geometry
            -------------------
    79
 geometry
 N                     2.32906152     4.50497561    -1.74104900
 C                     2.62746889     4.39747324    -0.31708893
 C                     1.58316452     3.88229451     0.65826088
 O                     1.96536223     3.17203504     1.63153031
 C                     3.17093495     5.77310393     0.17051833
 C                     4.61984434     5.98216592    -0.22109840
 O                     5.17470143     7.06570304     0.06565919
 O                     5.24172042     5.10923915    -0.84227389
 N                     0.34751118     4.30287770     0.51273907
 C                    -0.76651384     3.94357402     1.40931708
 C                    -1.42962453     2.63454319     1.13913479
 O                    -2.25461301     2.15397265     1.94921872
 N                    -1.11857252     1.96615596     0.03444200
 C                    -1.67514052     0.63072531    -0.26339357
 C                    -0.80180935    -0.40750593     0.42477687
 O                     0.35946097    -0.12200259     0.78880720
 C                    -1.69557624     0.34016866    -1.76580603
 C                    -2.45516489     1.39076317    -2.60100976
 C                    -3.96055504     1.17262312    -2.27426608
 N                    -4.36917204     2.37842516    -1.58917952
 C                    -4.96902685     2.65972446    -0.47410020
 N                    -5.40925757     1.78228945     0.40777548
 N                    -5.10570620     3.97134461    -0.14396636
 N                    -1.29538921    -1.61649224     0.52247552
 C                    -0.56570687    -2.76611350     1.10378494
 C                    -0.11142581    -3.65076119    -0.08128729
 O                    -0.58915638    -3.48311333    -1.19864386
 C                    -1.47918793    -3.59968258     2.05247294
 O                    -2.57683571    -4.02927961     1.13594267
 C                    -2.07456032    -2.87604938     3.24367474
 N                     0.81388643    -4.54470352     0.20027685
 C                     1.31248684    -5.50593605    -0.79835355
 C                     0.14051370    -6.37085985    -1.25458680
 O                     0.03870186    -6.62648525    -2.42370100
 C                     2.45042237    -6.32411125    -0.15201459
 C                     3.69261129    -5.59040550     0.35231822
 C                     4.70766680    -6.58422804     0.94040330
 C                     4.42413898    -4.91980436    -0.80833304
 H                     2.58480150     5.43884488    -2.22572028
 H                     3.37933543     3.54155260    -0.28833884
 H                     2.54086211     6.60242560    -0.29281178
 H                     3.10728899     5.79370085     1.30869185
 H                     4.63044578     7.82303659     0.57710194
 H                     0.13215710     4.95838079    -0.32175738
 H                    -0.36130414     3.91589997     2.47409933
 H                    -1.56787139     4.73520305     1.23444982
 H                    -0.43275172     2.41605737    -0.67278395
 H                    -2.75019383     0.59403206     0.11267823
 H                    -0.61844170     0.29870313    -2.13699168
 H                    -2.24657428    -0.64792209    -1.90153682
 H                    -2.13236094     2.44339667    -2.30635858
 H                    -2.24324701     1.27875011    -3.71576259
 H                    -4.56233961     1.03107077    -3.23168567
 H                    -4.13226686     0.23968514    -1.64266829
 H                    -4.10975280     3.27006952    -2.14607627
 H                    -5.28087180     0.72266712     0.22726890
 H                    -5.89890886     2.12206391     1.31143854
 H                    -4.71938051     4.73840703    -0.80284397
 H                    -2.30014202    -1.78622743     0.15528244
 H                     0.31698638    -2.39451640     1.72256942
 H                    -0.86489037    -4.42176299     2.54748436
 H                    -3.54691947    -3.89542208     1.63656496
 H                    -3.19425144    -3.08211919     3.29344446
 H                    -1.57788383    -3.24634598     4.20012593
 H                    -1.89944599    -1.75508254     3.13355521
 H                     1.22300061    -4.57417275     1.20254884
 H                     1.73959766    -4.99148459    -1.72178413
 H                     2.00208582    -6.87456009     0.73962515
 H                     2.84186606    -6.97212753    -1.00439170
 H                     3.33405558    -4.83613543     1.12860648
 H                     4.58444703    -7.59838715     0.43407813
 H                     5.76562815    -6.19704927     0.76348413
 H                     4.52554617    -6.69481701     2.06102641
 H                     4.08863545    -5.38948867    -1.79186445
 H                     4.18170513    -3.80563401    -0.81677499
 H                     5.54843388    -5.06355819    -0.68258005
 H                     1.32610230     4.36202290    -1.85742047
 H                    -5.55568790     4.22360296     0.69405940
 H                    -0.54852316    -6.72763283    -0.57488815
 
 ==============================================================================
                                internuclear distances
 ------------------------------------------------------------------------------
       center one      |      center two      | atomic units |  angstroms
 ------------------------------------------------------------------------------
    2 C                |   1 N                |     2.75684  |     1.45886
    3 C                |   2 C                |     2.87045  |     1.51898
    4 O                |   3 C                |     2.38869  |     1.26404
    5 C                |   2 C                |     2.94305  |     1.55739
    6 C                |   5 C                |     2.86367  |     1.51539
    7 O                |   6 C                |     2.36340  |     1.25066
    8 O                |   6 C                |     2.34097  |     1.23879
    9 N                |   3 C                |     2.48188  |     1.31336
   10 C                |   9 N                |     2.78631  |     1.47445
   11 C                |  10 C                |     2.81961  |     1.49207
   12 O                |  11 C                |     2.36615  |     1.25211
   13 N                |  11 C                |     2.50974  |     1.32810
   14 C                |  13 N                |     2.79133  |     1.47711
   15 C                |  14 C                |     2.87475  |     1.52125
   16 O                |  15 C                |     2.36222  |     1.25003
   17 C                |  14 C                |     2.89201  |     1.53039
   18 C                |  17 C                |     2.91428  |     1.54217
   19 C                |  18 C                |     2.94006  |     1.55581
   20 N                |  19 C                |     2.73212  |     1.44578
   21 C                |  20 N                |     2.45108  |     1.29706
   22 N                |  21 C                |     2.49372  |     1.31962
   23 N                |  21 C                |     2.56893  |     1.35942
   24 N                |  15 C                |     2.47461  |     1.30951
   25 C                |  24 N                |     2.79781  |     1.48054
   26 C                |  25 C                |     2.92350  |     1.54705
   27 O                |  26 C                |     2.31815  |     1.22671
   28 C                |  25 C                |     2.94536  |     1.55862
   29 O                |  28 C                |     2.82159  |     1.49312
   30 C                |  28 C                |     2.86409  |     1.51561
   31 N                |  26 C                |     2.48886  |     1.31705
   32 C                |  31 N                |     2.78363  |     1.47304
   33 C                |  32 C                |     2.88439  |     1.52636
   34 O                |  33 C                |     2.26967  |     1.20106
   35 C                |  32 C                |     2.91659  |     1.54339
   36 C                |  35 C                |     2.88807  |     1.52830
   37 C                |  36 C                |     2.90543  |     1.53749
   38 C                |  36 C                |     2.88575  |     1.52707
   39 H                |   1 N                |     2.04616  |     1.08278
   40 H                |   2 C                |     2.15357  |     1.13962
   41 H                |   5 C                |     2.15416  |     1.13993
   42 H                |   5 C                |     2.15455  |     1.14014
   43 H                |   7 O                |     2.01000  |     1.06365
   44 H                |   9 N                |     2.04619  |     1.08280
   45 H                |  10 C                |     2.15356  |     1.13961
   46 H                |  10 C                |     2.15415  |     1.13992
   47 H                |  13 N                |     2.04661  |     1.08302
   48 H                |  14 C                |     2.15339  |     1.13952
   49 H                |  17 C                |     2.15438  |     1.14005
   50 H                |  17 C                |     2.15325  |     1.13945
   51 H                |  18 C                |     2.15384  |     1.13976
   52 H                |  18 C                |     2.15473  |     1.14023
   53 H                |  19 C                |     2.15365  |     1.13966
   54 H                |  19 C                |     2.15360  |     1.13964
   55 H                |  20 N                |     2.04620  |     1.08280
   56 H                |  22 N                |     2.04568  |     1.08253
   57 H                |  22 N                |     2.04563  |     1.08250
   58 H                |  23 N                |     2.04558  |     1.08247
   59 H                |  24 N                |     2.04682  |     1.08313
   60 H                |  25 C                |     2.15472  |     1.14023
   61 H                |  28 C                |     2.15314  |     1.13939
   63 H                |  30 C                |     2.15350  |     1.13958
   64 H                |  30 C                |     2.15346  |     1.13956
   65 H                |  30 C                |     2.15409  |     1.13989
   66 H                |  31 N                |     2.04649  |     1.08296
   67 H                |  32 C                |     2.15446  |     1.14009
   68 H                |  35 C                |     2.15381  |     1.13975
   69 H                |  35 C                |     2.15437  |     1.14004
   70 H                |  36 C                |     2.15471  |     1.14022
   71 H                |  37 C                |     2.15467  |     1.14020
   72 H                |  37 C                |     2.15503  |     1.14039
   73 H                |  37 C                |     2.15561  |     1.14070
   74 H                |  38 C                |     2.15503  |     1.14039
   75 H                |  38 C                |     2.15480  |     1.14027
   76 H                |  38 C                |     2.15505  |     1.14040
   77 H                |   1 N                |     1.92706  |     1.01976
   78 H                |  23 N                |     1.85963  |     0.98408
   79 H                |  33 C                |     1.94930  |     1.03153
 ------------------------------------------------------------------------------
                         number of included internuclear distances:         77
 ==============================================================================



 ==============================================================================
                                 internuclear angles
 ------------------------------------------------------------------------------
        center 1       |       center 2       |       center 3       |  degrees
 ------------------------------------------------------------------------------
    2 C                |   1 N                |  39 H                |   116.88
    2 C                |   1 N                |  77 H                |   107.59
   39 H                |   1 N                |  77 H                |   107.58
    1 N                |   2 C                |   3 C                |   120.74
    1 N                |   2 C                |   5 C                |   108.17
    1 N                |   2 C                |  40 H                |   102.41
    3 C                |   2 C                |   5 C                |   109.78
    3 C                |   2 C                |  40 H                |   100.52
    5 C                |   2 C                |  40 H                |   115.17
    2 C                |   3 C                |   4 O                |   118.50
    2 C                |   3 C                |   9 N                |   117.84
    4 O                |   3 C                |   9 N                |   123.35
    2 C                |   5 C                |   6 C                |   112.00
    2 C                |   5 C                |  41 H                |   108.81
    2 C                |   5 C                |  42 H                |   108.00
    6 C                |   5 C                |  41 H                |   108.85
    6 C                |   5 C                |  42 H                |   107.99
   41 H                |   5 C                |  42 H                |   111.21
    5 C                |   6 C                |   7 O                |   118.98
    5 C                |   6 C                |   8 O                |   120.82
    7 O                |   6 C                |   8 O                |   120.18
    6 C                |   7 O                |  43 H                |   120.01
    3 C                |   9 N                |  10 C                |   124.43
    3 C                |   9 N                |  44 H                |   117.80
   10 C                |   9 N                |  44 H                |   117.77
    9 N                |  10 C                |  11 C                |   116.07
    9 N                |  10 C                |  45 H                |   107.78
    9 N                |  10 C                |  46 H                |   105.58
   11 C                |  10 C                |  45 H                |   107.81
   11 C                |  10 C                |  46 H                |   105.61
   45 H                |  10 C                |  46 H                |   114.21
   10 C                |  11 C                |  12 O                |   120.82
   10 C                |  11 C                |  13 N                |   119.21
   12 O                |  11 C                |  13 N                |   119.95
   11 C                |  13 N                |  14 C                |   122.31
   11 C                |  13 N                |  47 H                |   118.84
   14 C                |  13 N                |  47 H                |   118.85
   13 N                |  14 C                |  15 C                |   108.03
   13 N                |  14 C                |  17 C                |   112.00
   13 N                |  14 C                |  48 H                |   108.54
   15 C                |  14 C                |  17 C                |   108.80
   15 C                |  14 C                |  48 H                |   111.74
   17 C                |  14 C                |  48 H                |   107.78
   14 C                |  15 C                |  16 O                |   120.61
   14 C                |  15 C                |  24 N                |   116.58
   16 O                |  15 C                |  24 N                |   122.64
   14 C                |  17 C                |  18 C                |   114.14
   14 C                |  17 C                |  49 H                |   108.30
   14 C                |  17 C                |  50 H                |   106.74
   18 C                |  17 C                |  49 H                |   108.29
   18 C                |  17 C                |  50 H                |   106.74
   49 H                |  17 C                |  50 H                |   112.74
   17 C                |  18 C                |  19 C                |   105.51
   17 C                |  18 C                |  51 H                |   110.47
   17 C                |  18 C                |  52 H                |   111.78
   19 C                |  18 C                |  51 H                |   110.44
   19 C                |  18 C                |  52 H                |   111.80
   51 H                |  18 C                |  52 H                |   106.91
   18 C                |  19 C                |  20 N                |   104.84
   18 C                |  19 C                |  53 H                |   110.60
   18 C                |  19 C                |  54 H                |   112.15
   20 N                |  19 C                |  53 H                |   110.64
   20 N                |  19 C                |  54 H                |   112.18
   53 H                |  19 C                |  54 H                |   106.52
   19 C                |  20 N                |  21 C                |   135.97
   19 C                |  20 N                |  55 H                |   112.05
   21 C                |  20 N                |  55 H                |   111.99
   20 N                |  21 C                |  22 N                |   125.77
   20 N                |  21 C                |  23 N                |   117.68
   22 N                |  21 C                |  23 N                |   116.47
   21 C                |  22 N                |  56 H                |   119.99
   21 C                |  22 N                |  57 H                |   120.00
   56 H                |  22 N                |  57 H                |   120.01
   21 C                |  23 N                |  58 H                |   120.00
   21 C                |  23 N                |  78 H                |   120.01
   58 H                |  23 N                |  78 H                |   119.99
   15 C                |  24 N                |  25 C                |   124.08
   15 C                |  24 N                |  59 H                |   117.97
   25 C                |  24 N                |  59 H                |   117.94
   24 N                |  25 C                |  26 C                |   106.74
   24 N                |  25 C                |  28 C                |   111.43
   24 N                |  25 C                |  60 H                |   109.97
   26 C                |  25 C                |  28 C                |   109.42
   26 C                |  25 C                |  60 H                |   112.01
   28 C                |  25 C                |  60 H                |   107.32
   25 C                |  26 C                |  27 O                |   120.35
   25 C                |  26 C                |  31 N                |   115.51
   27 O                |  26 C                |  31 N                |   124.13
   25 C                |  28 C                |  29 O                |   102.19
   25 C                |  28 C                |  30 C                |   116.95
   25 C                |  28 C                |  61 H                |   109.53
   29 O                |  28 C                |  30 C                |   109.33
   29 O                |  28 C                |  61 H                |   117.09
   30 C                |  28 C                |  61 H                |   102.40
   28 C                |  30 C                |  63 H                |   109.51
   28 C                |  30 C                |  64 H                |   109.47
   28 C                |  30 C                |  65 H                |   109.47
   63 H                |  30 C                |  64 H                |   109.44
   63 H                |  30 C                |  65 H                |   109.45
   64 H                |  30 C                |  65 H                |   109.49
   26 C                |  31 N                |  32 C                |   122.40
   26 C                |  31 N                |  66 H                |   118.80
   32 C                |  31 N                |  66 H                |   118.80
   31 N                |  32 C                |  33 C                |   108.21
   31 N                |  32 C                |  35 C                |   108.15
   31 N                |  32 C                |  67 H                |   112.42
   33 C                |  32 C                |  35 C                |   113.01
   33 C                |  32 C                |  67 H                |   107.53
   35 C                |  32 C                |  67 H                |   107.59
   32 C                |  33 C                |  34 O                |   118.47
   32 C                |  33 C                |  79 H                |   120.79
   34 O                |  33 C                |  79 H                |   120.74
   32 C                |  35 C                |  36 C                |   118.88
   32 C                |  35 C                |  68 H                |   107.07
   32 C                |  35 C                |  69 H                |   103.97
   36 C                |  35 C                |  68 H                |   107.06
   36 C                |  35 C                |  69 H                |   103.92
   68 H                |  35 C                |  69 H                |   116.45
   35 C                |  36 C                |  37 C                |   110.64
   35 C                |  36 C                |  38 C                |   110.45
   35 C                |  36 C                |  70 H                |   106.66
   37 C                |  36 C                |  38 C                |   104.97
   37 C                |  36 C                |  70 H                |   112.01
   38 C                |  36 C                |  70 H                |   112.19
   36 C                |  37 C                |  71 H                |   109.50
   36 C                |  37 C                |  72 H                |   109.49
   36 C                |  37 C                |  73 H                |   109.45
   71 H                |  37 C                |  72 H                |   109.47
   71 H                |  37 C                |  73 H                |   109.44
   72 H                |  37 C                |  73 H                |   109.48
   36 C                |  38 C                |  74 H                |   109.49
   36 C                |  38 C                |  75 H                |   109.44
   36 C                |  38 C                |  76 H                |   109.46
   74 H                |  38 C                |  75 H                |   109.48
   74 H                |  38 C                |  76 H                |   109.46
   75 H                |  38 C                |  76 H                |   109.49
 ------------------------------------------------------------------------------
                            number of included internuclear angles:        136
 ==============================================================================



          ****************************************************
          *                                                  *
          *               NWPW PSPW Calculation              *
          *                                                  *
          * [ (Grassmann/Stiefel manifold implementation)  ] *
          *                                                  *
          *      [ NorthWest Chemistry implementation ]      *
          *                                                  *
          *            version #5.10   06/12/02              *
          *                                                  *
          *    This code was developed by Eric J. Bylaska,   *
          *    and was based upon algorithms and code        *
          *    developed by the group of Prof. John H. Weare *
          *                                                  *
          ****************************************************
     >>>  JOB STARTED       AT Wed Jan  3 19:47:46 2018  <<<
          ================ input data ========================
  library name resolved from: environment
  NWCHEM_NWPW_LIBRARY set to: <
 /sw/xk6/nwchem/6.6/sles11.3_pgi15.7.0/src/nwpw/libraryps/>
 Generating 1d pseudopotential for N   
 
 Generated formatted_filename: 
 /lustre/atlas/scratch/hjjvd/csc249/.3808492/N.vpp
  library name resolved from: environment
  NWCHEM_NWPW_LIBRARY set to: <
 /sw/xk6/nwchem/6.6/sles11.3_pgi15.7.0/src/nwpw/libraryps/>
 Generating 1d pseudopotential for C   
 
 Generated formatted_filename: 
 /lustre/atlas/scratch/hjjvd/csc249/.3808492/C.vpp
  library name resolved from: environment
  NWCHEM_NWPW_LIBRARY set to: <
 /sw/xk6/nwchem/6.6/sles11.3_pgi15.7.0/src/nwpw/libraryps/>
 Generating 1d pseudopotential for O   
 
 Generated formatted_filename: 
 /lustre/atlas/scratch/hjjvd/csc249/.3808492/O.vpp
  library name resolved from: environment
  NWCHEM_NWPW_LIBRARY set to: <
 /sw/xk6/nwchem/6.6/sles11.3_pgi15.7.0/src/nwpw/libraryps/>
 Generating 1d pseudopotential for H   
 
 Generated formatted_filename: 
 /lustre/atlas/scratch/hjjvd/csc249/.3808492/H.vpp
 random planewave guess, initial psi:
 nwc_pweg_dat.movecs                               
 -   spin, nalpha, nbeta:                        1                      108 
                        0

 input psi filename:/lustre/atlas/scratch/hjjvd/csc249/.3808492/nwc_pweg_dat.movecs
 Warning - Gram-Schmidt being performed on psi:    108.0000000000000      
    69.09857780715515         108.0000000000000         38.90142219284485     

 number of processors used:       512
 processor grid           :  64 x   8
 parallel mapping         :2d hilbert
 parallel mapping         :  balanced
 number of threads        :         1
 parallel io              :       off

 options:
      boundary conditions  = aperiodic   (version4)
      electron spin        = restricted
      exchange-correlation = PBE96 (White and Bird) parameterization

 elements involved in the cluster:
      1: N   valence charge:  5.0000  lmax=  2
             comment    : Hamann pseudopotential
             pseudpotential type            :   0
             highest angular component      :   2
             local potential used           :   2
             number of non-local projections:   4
             aperiodic cutoff radius        :  1.000
             cutoff =   0.700   0.700   0.700
 
      2: C   valence charge:  4.0000  lmax=  2
             comment    : Parameterized (J.Phys.Chem., vol 100, page 6966) Hamman psp
             pseudpotential type            :   0
             highest angular component      :   2
             local potential used           :   2
             number of non-local projections:   4
             aperiodic cutoff radius        :  1.000
             cutoff =   0.800   0.850   0.850
 
      3: O   valence charge:  6.0000  lmax=  2
             comment    : Parameterized (Chem.Phys.Lett., vol 322, page 447) Hamman psp
             pseudpotential type            :   0
             highest angular component      :   2
             local potential used           :   2
             number of non-local projections:   4
             aperiodic cutoff radius        :  1.000
             cutoff =   0.700   0.700   0.700
 
      4: H   valence charge:  1.0000  lmax=  1
             comment    : Parameterized (Chem.Phys.Lett., vol 322, page 447) Hamman psp
             pseudpotential type            :   0
             highest angular component      :   1
             local potential used           :   1
             number of non-local projections:   1
             aperiodic cutoff radius        :  1.000
             cutoff =   0.800   0.800
 

 total charge:   1.000

 atomic composition:
     N   :    8     C   :   22     O   :    8     H   :   41

 number of electrons: spin up=   108 (  14 per task)  down=   108 (  14 per task) (Fourier space)
 number of orbitals : spin up=   108 (  14 per task)  down=   108 (  14 per task) (Fourier space)

 supercell:
      cell_name:  cell_default                                      
      lattice:    a1=<  23.000   0.000   0.000 >
                  a2=<   0.000  23.000   0.000 >
                  a3=<   0.000   0.000  24.000 >
      reciprocal: b1=<   0.273   0.000  -0.000 >
                  b2=<  -0.000   0.273  -0.000 >
                  b3=<   0.000   0.000   0.262 >
      lattice:    a=      23.000 b=     23.000 c=      24.000
                  alpha=  90.000 beta=  90.000 gamma=  90.000
                  omega=     12696.0

      density cutoff=100.000  fft=108x108x112(   303117 waves     4736 per task)
      wavefnc cutoff= 50.000  fft=108x108x112(   107189 waves     1674 per task)

 technical parameters:
      time step=      5.80     fictitious mass=  400000.0
      tolerance=0.100E-06 (energy)   0.100E-06 (density)
      maximum iterations =      1000 (   10 inner    100 outer )





== Energy Calculation ==


          ============ Grassmann lmbfgs iteration ============
     >>>  ITERATION STARTED AT Wed Jan  3 19:48:48 2018  <<<
    iter.           Energy         DeltaE       DeltaRho 
    ------------------------------------------------------
     -  15 steepest descent iterations performed
      10   -0.2419686346E+03   -0.44768E+01    0.27677E+02
     -  10 steepest descent iterations performed
      20   -0.2643066258E+03   -0.54221E+00    0.41825E+00
     -  10 steepest descent iterations performed
      30   -0.2681394762E+03   -0.14184E+00    0.49280E-01
     -  10 steepest descent iterations performed
      40   -0.2691314391E+03   -0.38607E-01    0.12500E-01
     -  10 steepest descent iterations performed
      50   -0.2694651200E+03   -0.16930E-01    0.36763E-02
     -  10 steepest descent iterations performed
      60   -0.2696012235E+03   -0.70358E-02    0.11772E-02
      70   -0.2697119201E+03   -0.43896E-02    0.19685E-02
      80   -0.2697476579E+03   -0.29151E-02    0.85551E-03
      90   -0.2697609257E+03   -0.64659E-03    0.22452E-03
     100   -0.2697662654E+03   -0.36783E-03    0.98052E-04
     110   -0.2697682729E+03   -0.12776E-03    0.26529E-04
     120   -0.2697692450E+03   -0.68777E-04    0.15298E-04
     130   -0.2697697068E+03   -0.32409E-04    0.68069E-05
     140   -0.2697699715E+03   -0.22321E-04    0.38886E-05
     150   -0.2697701484E+03   -0.14890E-04    0.26126E-05
     160   -0.2697703087E+03   -0.16065E-04    0.41302E-05
     -  10 steepest descent iterations performed
     170   -0.2697704426E+03   -0.10478E-04    0.12581E-05
     180   -0.2697705577E+03   -0.10691E-04    0.20823E-05
     -  10 steepest descent iterations performed
     190   -0.2697706459E+03   -0.93370E-05    0.98508E-06
     200   -0.2697707706E+03   -0.14027E-04    0.30412E-05
     -  10 steepest descent iterations performed
     210   -0.2697709148E+03   -0.10840E-04    0.15877E-05
     220   -0.2697710267E+03   -0.11266E-04    0.19886E-05
     -  10 steepest descent iterations performed
     230   -0.2697711655E+03   -0.14342E-04    0.16221E-05
     -  10 steepest descent iterations performed
     240   -0.2697712730E+03   -0.12937E-04    0.97801E-06
     250   -0.2697725084E+03   -0.19304E-03    0.27274E-03
     -  10 steepest descent iterations performed
     260   -0.2697742755E+03   -0.39547E-04    0.28292E-04
     270   -0.2697744941E+03   -0.25654E-04    0.28282E-05
     280   -0.2697753161E+03   -0.85877E-04    0.47009E-04
     -  10 steepest descent iterations performed
     290   -0.2697759596E+03   -0.39439E-04    0.91601E-05
     300   -0.2697761623E+03   -0.21617E-04    0.29181E-05
     310   -0.2697765056E+03   -0.27023E-04    0.12021E-04
     -  10 steepest descent iterations performed
     320   -0.2697767777E+03   -0.16008E-04    0.41921E-05
     330   -0.2697769384E+03   -0.16461E-04    0.30043E-05
     -  10 steepest descent iterations performed
     340   -0.2697770597E+03   -0.12396E-04    0.12643E-05
     350   -0.2697772092E+03   -0.10514E-04    0.41648E-05
     360   -0.2697775584E+03   -0.26189E-04    0.22455E-04
     -  10 steepest descent iterations performed
     370   -0.2697777195E+03   -0.51880E-05    0.18514E-05
     380   -0.2697777573E+03   -0.25159E-05    0.51082E-06
     390   -0.2697777734E+03   -0.12640E-05    0.22048E-06
     400   -0.2697778085E+03   -0.43301E-05    0.12743E-05
     -  10 steepest descent iterations performed
     410   -0.2697778316E+03   -0.88703E-06    0.24897E-06
     420   -0.2697778422E+03   -0.10260E-05    0.15620E-06
     -  10 steepest descent iterations performed
     430   -0.2697778488E+03   -0.68175E-06    0.74054E-07
     440   -0.2697778587E+03   -0.14676E-05    0.31384E-06
     -  10 steepest descent iterations performed
     450   -0.2697778669E+03   -0.43733E-06    0.81729E-07
     460   -0.2697778702E+03   -0.32351E-06    0.54877E-07
     470   -0.2697778799E+03   -0.49805E-06    0.51181E-06
     -  10 steepest descent iterations performed
     480   -0.2697778862E+03   -0.19891E-06    0.13979E-06
     490   -0.2697778876E+03   -0.13839E-06    0.22999E-07
     500   -0.2697778892E+03   -0.18279E-06    0.35094E-07
     -  10 steepest descent iterations performed
     510   -0.2697778899E+03   -0.89204E-07    0.31710E-08
  *** tolerance ok. iteration terminated
     >>>  ITERATION ENDED   AT Wed Jan  3 20:02:13 2018  <<<


==  Summary Of Results  ==
 
 number of electrons: spin up=  108.00000  down=  108.00000 (real space)

 total     energy    :  -0.2697778899E+03 (   -0.34149E+01/ion)
 total orbital energy:  -0.6628964221E+02 (   -0.61379E+00/electron)
 hartree   energy    :   0.2668373845E+04 (    0.24707E+02/electron)
 exc-corr  energy    :  -0.9476535716E+02 (   -0.87746E+00/electron)
 ion-ion   energy    :   0.2436486820E+04 (    0.30842E+02/ion)

 kinetic (planewave) :   0.2223659198E+03 (    0.20589E+01/electron)
 V_local (planewave) :  -0.5491937055E+04 (   -0.50851E+02/electron)
 V_nl    (planewave) :  -0.1030206306E+02 (   -0.95389E-01/electron)
 V_Coul  (planewave) :   0.5336747691E+04 (    0.49414E+02/electron)
 V_xc.   (planewave) :  -0.1231641352E+03 (   -0.11404E+01/electron)
 Virial Coefficient  :  -0.1298110620E+01

 orbital energies:
     0.8295641E-01 (   2.257eV)
     0.7542965E-01 (   2.053eV)
     0.6512198E-01 (   1.772eV)
     0.5889042E-01 (   1.603eV)
     0.4778565E-01 (   1.300eV)
     0.3179087E-01 (   0.865eV)
     0.1842525E-01 (   0.501eV)
     0.4338557E-02 (   0.118eV)
    -0.1073555E-02 (  -0.029eV)
    -0.9388762E-02 (  -0.255eV)
    -0.1451201E-01 (  -0.395eV)
    -0.2037788E-01 (  -0.555eV)
    -0.2690989E-01 (  -0.732eV)
    -0.3301602E-01 (  -0.898eV)
    -0.3672562E-01 (  -0.999eV)
    -0.3847638E-01 (  -1.047eV)
    -0.4401472E-01 (  -1.198eV)
    -0.4809881E-01 (  -1.309eV)
    -0.5206573E-01 (  -1.417eV)
    -0.7308010E-01 (  -1.989eV)
    -0.7773774E-01 (  -2.115eV)
    -0.8524971E-01 (  -2.320eV)
    -0.9479047E-01 (  -2.579eV)
    -0.1101368E+00 (  -2.997eV)
    -0.1110521E+00 (  -3.022eV)
    -0.1188132E+00 (  -3.233eV)
    -0.1227066E+00 (  -3.339eV)
    -0.1258846E+00 (  -3.426eV)
    -0.1294887E+00 (  -3.524eV)
    -0.1398160E+00 (  -3.805eV)
    -0.1427321E+00 (  -3.884eV)
    -0.1438317E+00 (  -3.914eV)
    -0.1493889E+00 (  -4.065eV)
    -0.1503989E+00 (  -4.093eV)
    -0.1533522E+00 (  -4.173eV)
    -0.1600438E+00 (  -4.355eV)
    -0.1651740E+00 (  -4.495eV)
    -0.1686719E+00 (  -4.590eV)
    -0.1719704E+00 (  -4.680eV)
    -0.1802942E+00 (  -4.906eV)
    -0.1848105E+00 (  -5.029eV)
    -0.1877813E+00 (  -5.110eV)
    -0.1943844E+00 (  -5.290eV)
    -0.1966236E+00 (  -5.350eV)
    -0.2040265E+00 (  -5.552eV)
    -0.2063536E+00 (  -5.615eV)
    -0.2123601E+00 (  -5.779eV)
    -0.2155178E+00 (  -5.865eV)
    -0.2201698E+00 (  -5.991eV)
    -0.2213218E+00 (  -6.023eV)
    -0.2270603E+00 (  -6.179eV)
    -0.2296171E+00 (  -6.248eV)
    -0.2358853E+00 (  -6.419eV)
    -0.2404708E+00 (  -6.544eV)
    -0.2436403E+00 (  -6.630eV)
    -0.2520655E+00 (  -6.859eV)
    -0.2568181E+00 (  -6.988eV)
    -0.2596908E+00 (  -7.067eV)
    -0.2657513E+00 (  -7.232eV)
    -0.2706002E+00 (  -7.363eV)
    -0.2779625E+00 (  -7.564eV)
    -0.2816949E+00 (  -7.665eV)
    -0.2870440E+00 (  -7.811eV)
    -0.2989028E+00 (  -8.134eV)
    -0.3106132E+00 (  -8.452eV)
    -0.3253320E+00 (  -8.853eV)
    -0.3271766E+00 (  -8.903eV)
    -0.3351814E+00 (  -9.121eV)
    -0.3398680E+00 (  -9.248eV)
    -0.3505634E+00 (  -9.539eV)
    -0.3611393E+00 (  -9.827eV)
    -0.3647239E+00 (  -9.925eV)
    -0.3671476E+00 (  -9.991eV)
    -0.3752982E+00 ( -10.212eV)
    -0.3772368E+00 ( -10.265eV)
    -0.3886837E+00 ( -10.577eV)
    -0.3990275E+00 ( -10.858eV)
    -0.4197451E+00 ( -11.422eV)
    -0.4231741E+00 ( -11.515eV)
    -0.4350675E+00 ( -11.839eV)
    -0.4415792E+00 ( -12.016eV)
    -0.4637155E+00 ( -12.618eV)
    -0.4745716E+00 ( -12.914eV)
    -0.4849221E+00 ( -13.196eV)
    -0.5118295E+00 ( -13.928eV)
    -0.5158532E+00 ( -14.037eV)
    -0.5384717E+00 ( -14.653eV)
    -0.5544436E+00 ( -15.087eV)
    -0.5686753E+00 ( -15.475eV)
    -0.6103191E+00 ( -16.608eV)
    -0.6138349E+00 ( -16.703eV)
    -0.6292639E+00 ( -17.123eV)
    -0.6481961E+00 ( -17.638eV)
    -0.6521128E+00 ( -17.745eV)
    -0.6603991E+00 ( -17.971eV)
    -0.6900784E+00 ( -18.778eV)
    -0.6966038E+00 ( -18.956eV)
    -0.7261022E+00 ( -19.758eV)
    -0.7376040E+00 ( -20.071eV)
    -0.7451752E+00 ( -20.277eV)
    -0.7466025E+00 ( -20.316eV)
    -0.7591928E+00 ( -20.659eV)
    -0.7873563E+00 ( -21.425eV)
    -0.7930278E+00 ( -21.580eV)
    -0.8078158E+00 ( -21.982eV)
    -0.8716610E+00 ( -23.719eV)
    -0.9830093E+00 ( -26.749eV)
    -0.1147338E+01 ( -31.221eV)

 Total PSPW energy     :  -0.2697778899E+03


=== Spin Contamination ===
 
 <Sexact^2> =     0.000000000000000     
 <S^2>      =     0.000000000000000     
 


== Center of Charge ==

spin up     (   -0.3023,    0.3233,    0.0362 )
spin down   (   -0.3023,    0.3233,    0.0362 )
     total  (   -0.3023,    0.3233,    0.0362 )
ionic       (   -0.0052,   -0.0034,    0.0036 )


== Molecular Dipole wrt Center of Mass ==

mu   =  (   64.1811,  -70.5803,   -7.0287 ) au
|mu| =    95.6566 au,     243.1209 Debye

 output psi filename:/lustre/atlas/scratch/hjjvd/csc249/.3808492/nwc_pweg_dat.movecs


== Timing ==

cputime in seconds
  prologue    :   0.616593E+02
  main loop   :   0.806582E+03
  epilogue    :   0.159795E+02
  total       :   0.884220E+03
  cputime/step:   0.597911E+00       (    1349 evalulations,     503 linesearches)


Time spent doing                        total          step       percent
  total time                 :   0.885234E+03  0.656215E+00       100.0 %
  i/o time                   :   0.329846E+02  0.244512E-01         3.7 %
  FFTs                       :   0.141091E+03  0.104589E+00        15.9 %
  dot products               :   0.625133E+02  0.463405E-01         7.1 %
  geodesic                   :   0.361550E+03  0.268013E+00        40.8 %
  ffm_dgemm                  :   0.152126E+03  0.112770E+00        17.2 %
  fmf_dgemm                  :   0.238811E+03  0.177028E+00        27.0 %
  mmm_dgemm                  :   0.633341E+01  0.469489E-02         0.7 %
  m_diagonalize              :   0.510869E+01  0.378702E-02         0.6 %
  exchange correlation       :   0.811142E+02  0.601292E-01         9.2 %
  local pseudopotentials     :   0.599370E-01  0.444307E-04         0.0 %
  non-local pseudopotentials :   0.366324E+02  0.271552E-01         4.1 %
  structure factors          :   0.255774E+01  0.189603E-02         0.3 %
  phase factors              :   0.106192E-02  0.787187E-06         0.0 %
  masking and packing        :   0.163709E+02  0.121356E-01         1.8 %
  queue fft                  :   0.961677E+02  0.712882E-01        10.9 %
  queue fft (serial)         :   0.342107E+02  0.253600E-01         3.9 %
  queue fft (message passing):   0.602143E+02  0.446362E-01         6.8 %
  non-local psp FFM          :   0.194343E+02  0.144064E-01         2.2 %
  non-local psp FMF          :   0.141287E+02  0.104735E-01         1.6 %
  non-local psp FFM A        :   0.194031E+01  0.143834E-02         0.2 %
  non-local psp FFM B        :   0.139800E+02  0.103632E-01         1.6 %
 
     >>>  JOB COMPLETED     AT Wed Jan  3 20:02:30 2018  <<<
          ****************************************************
          *                                                  *
          *               NWPW PSPW Calculation              *
          *                                                  *
          * [ (Grassmann/Stiefel manifold implementation)  ] *
          *                                                  *
          *      [ NorthWest Chemistry implementation ]      *
          *                                                  *
          *            version #5.10   06/12/02              *
          *                                                  *
          *    This code was developed by Eric J. Bylaska,   *
          *    and was based upon algorithms and code        *
          *    developed by the group of Prof. John H. Weare *
          *                                                  *
          ****************************************************
     >>>  JOB STARTED       AT Wed Jan  3 20:02:31 2018  <<<
          ================ input data ========================
 pseudopotential is not correctly formatted:
 N.vpp                                             
 
 Generated formatted_filename: 
 /lustre/atlas/scratch/hjjvd/csc249/.3808492/N.vpp
 pseudopotential is not correctly formatted:
 C.vpp                                             
 
 Generated formatted_filename: 
 /lustre/atlas/scratch/hjjvd/csc249/.3808492/C.vpp
 pseudopotential is not correctly formatted:
 O.vpp                                             
 
 Generated formatted_filename: 
 /lustre/atlas/scratch/hjjvd/csc249/.3808492/O.vpp
 pseudopotential is not correctly formatted:
 H.vpp                                             
 
 Generated formatted_filename: 
 /lustre/atlas/scratch/hjjvd/csc249/.3808492/H.vpp
 Error reading psi - bad grid
 nfft :                      108                      108 
                      112
 ngrid:                      150                      150 
                      160
 Error reading psi - bad grid
 nfft :                      108                      108 
                      112
 ngrid:                      150                      150 
                      160
 Error reading psi - bad grid
 
 Grid is being converted:
 ------------------------
 
 To turn off automatic grid conversion:
 
 set nwpw:psi_nogrid .false.
 
 old_filename: nwc_pweg_dat.movecs                               
 new_filename: nwc_pweg_dat.movecs                               
 converting  : 108x108x112 --> 150x150x160
converting .... psi:    1 spin: 1
converting .... psi:    2 spin: 1
converting .... psi:    3 spin: 1
converting .... psi:    4 spin: 1
converting .... psi:    5 spin: 1
converting .... psi:    6 spin: 1
converting .... psi:    7 spin: 1
converting .... psi:    8 spin: 1
converting .... psi:    9 spin: 1
converting .... psi:   10 spin: 1
converting .... psi:   11 spin: 1
converting .... psi:   12 spin: 1
converting .... psi:   13 spin: 1
converting .... psi:   14 spin: 1
converting .... psi:   15 spin: 1
converting .... psi:   16 spin: 1
converting .... psi:   17 spin: 1
converting .... psi:   18 spin: 1
converting .... psi:   19 spin: 1
converting .... psi:   20 spin: 1
converting .... psi:   21 spin: 1
converting .... psi:   22 spin: 1
converting .... psi:   23 spin: 1
converting .... psi:   24 spin: 1
converting .... psi:   25 spin: 1
converting .... psi:   26 spin: 1
converting .... psi:   27 spin: 1
converting .... psi:   28 spin: 1
converting .... psi:   29 spin: 1
converting .... psi:   30 spin: 1
converting .... psi:   31 spin: 1
converting .... psi:   32 spin: 1
converting .... psi:   33 spin: 1
converting .... psi:   34 spin: 1
converting .... psi:   35 spin: 1
converting .... psi:   36 spin: 1
converting .... psi:   37 spin: 1
converting .... psi:   38 spin: 1
converting .... psi:   39 spin: 1
converting .... psi:   40 spin: 1
converting .... psi:   41 spin: 1
converting .... psi:   42 spin: 1
converting .... psi:   43 spin: 1
converting .... psi:   44 spin: 1
converting .... psi:   45 spin: 1
converting .... psi:   46 spin: 1
converting .... psi:   47 spin: 1
converting .... psi:   48 spin: 1
converting .... psi:   49 spin: 1
converting .... psi:   50 spin: 1
converting .... psi:   51 spin: 1
converting .... psi:   52 spin: 1
converting .... psi:   53 spin: 1
converting .... psi:   54 spin: 1
converting .... psi:   55 spin: 1
converting .... psi:   56 spin: 1
converting .... psi:   57 spin: 1
converting .... psi:   58 spin: 1
converting .... psi:   59 spin: 1
converting .... psi:   60 spin: 1
converting .... psi:   61 spin: 1
converting .... psi:   62 spin: 1
converting .... psi:   63 spin: 1
converting .... psi:   64 spin: 1
converting .... psi:   65 spin: 1
converting .... psi:   66 spin: 1
converting .... psi:   67 spin: 1
converting .... psi:   68 spin: 1
converting .... psi:   69 spin: 1
converting .... psi:   70 spin: 1
converting .... psi:   71 spin: 1
converting .... psi:   72 spin: 1
converting .... psi:   73 spin: 1
converting .... psi:   74 spin: 1
converting .... psi:   75 spin: 1
converting .... psi:   76 spin: 1
converting .... psi:   77 spin: 1
converting .... psi:   78 spin: 1
converting .... psi:   79 spin: 1
converting .... psi:   80 spin: 1
converting .... psi:   81 spin: 1
converting .... psi:   82 spin: 1
converting .... psi:   83 spin: 1
converting .... psi:   84 spin: 1
converting .... psi:   85 spin: 1
converting .... psi:   86 spin: 1
converting .... psi:   87 spin: 1
converting .... psi:   88 spin: 1
converting .... psi:   89 spin: 1
converting .... psi:   90 spin: 1
converting .... psi:   91 spin: 1
converting .... psi:   92 spin: 1
converting .... psi:   93 spin: 1
converting .... psi:   94 spin: 1
converting .... psi:   95 spin: 1
converting .... psi:   96 spin: 1
converting .... psi:   97 spin: 1
converting .... psi:   98 spin: 1
converting .... psi:   99 spin: 1
converting .... psi:  100 spin: 1
converting .... psi:  101 spin: 1
converting .... psi:  102 spin: 1
converting .... psi:  103 spin: 1
converting .... psi:  104 spin: 1
converting .... psi:  105 spin: 1
converting .... psi:  106 spin: 1
converting .... psi:  107 spin: 1
converting .... psi:  108 spin: 1

 input psi filename:/lustre/atlas/scratch/hjjvd/csc249/.3808492/nwc_pweg_dat.movecs

 number of processors used:       512
 processor grid           : 128 x   4
 parallel mapping         :2d hilbert
 parallel mapping         :  balanced
 number of threads        :         1
 parallel io              :       off

 options:
      boundary conditions  = aperiodic   (version4)
      electron spin        = restricted
      exchange-correlation = PBE96 (White and Bird) parameterization

 elements involved in the cluster:
      1: N   valence charge:  5.0000  lmax=  2
             comment    : Hamann pseudopotential
             pseudpotential type            :   0
             highest angular component      :   2
             local potential used           :   2
             number of non-local projections:   4
             aperiodic cutoff radius        :  1.000
             cutoff =   0.700   0.700   0.700
 
      2: C   valence charge:  4.0000  lmax=  2
             comment    : Parameterized (J.Phys.Chem., vol 100, page 6966) Hamman psp
             pseudpotential type            :   0
             highest angular component      :   2
             local potential used           :   2
             number of non-local projections:   4
             aperiodic cutoff radius        :  1.000
             cutoff =   0.800   0.850   0.850
 
      3: O   valence charge:  6.0000  lmax=  2
             comment    : Parameterized (Chem.Phys.Lett., vol 322, page 447) Hamman psp
             pseudpotential type            :   0
             highest angular component      :   2
             local potential used           :   2
             number of non-local projections:   4
             aperiodic cutoff radius        :  1.000
             cutoff =   0.700   0.700   0.700
 
      4: H   valence charge:  1.0000  lmax=  1
             comment    : Parameterized (Chem.Phys.Lett., vol 322, page 447) Hamman psp
             pseudpotential type            :   0
             highest angular component      :   1
             local potential used           :   1
             number of non-local projections:   1
             aperiodic cutoff radius        :  1.000
             cutoff =   0.800   0.800
 

 total charge:   1.000

 atomic composition:
     N   :    8     C   :   22     O   :    8     H   :   41

 number of electrons: spin up=   108 (  27 per task)  down=   108 (  27 per task) (Fourier space)
 number of orbitals : spin up=   108 (  27 per task)  down=   108 (  27 per task) (Fourier space)

 supercell:
      cell_name:  cell_default                                      
      lattice:    a1=<  23.000   0.000   0.000 >
                  a2=<   0.000  23.000   0.000 >
                  a3=<   0.000   0.000  24.000 >
      reciprocal: b1=<   0.273   0.000  -0.000 >
                  b2=<  -0.000   0.273  -0.000 >
                  b3=<   0.000   0.000   0.262 >
      lattice:    a=      23.000 b=     23.000 c=      24.000
                  alpha=  90.000 beta=  90.000 gamma=  90.000
                  omega=     12696.0

      density cutoff=200.000  fft=150x150x160(   857629 waves     6700 per task)
      wavefnc cutoff=100.000  fft=150x150x160(   303117 waves     2368 per task)

 technical parameters:
      time step=      5.80     fictitious mass=  400000.0
      tolerance=0.100E-06 (energy)   0.100E-06 (density)
      maximum iterations =      1000 (   10 inner    100 outer )





== Energy Calculation ==


          ============ Grassmann lmbfgs iteration ============
     >>>  ITERATION STARTED AT Wed Jan  3 20:10:21 2018  <<<
    iter.           Energy         DeltaE       DeltaRho 
    ------------------------------------------------------
      10   -0.2695391350E+03   -0.55138E-03    0.54214E-02
      20   -0.2695408869E+03   -0.61498E-04    0.12883E-03
      30   -0.2695412081E+03   -0.18084E-04    0.12408E-04
      40   -0.2695413245E+03   -0.79428E-05    0.25553E-05
      50   -0.2695413837E+03   -0.47889E-05    0.10221E-05
      60   -0.2695414204E+03   -0.30109E-05    0.57813E-06
      70   -0.2695414443E+03   -0.20302E-05    0.34928E-06
      80   -0.2695414614E+03   -0.15062E-05    0.26868E-06
      90   -0.2695414759E+03   -0.13421E-05    0.26603E-06
     100   -0.2695414887E+03   -0.12080E-05    0.27677E-06
     110   -0.2695415000E+03   -0.10851E-05    0.29853E-06
     120   -0.2695415103E+03   -0.97960E-06    0.33312E-06
     130   -0.2695415191E+03   -0.78596E-06    0.28836E-06
     140   -0.2695415259E+03   -0.58478E-06    0.18244E-06
     150   -0.2695415308E+03   -0.43157E-06    0.10445E-06
     160   -0.2695415345E+03   -0.31286E-06    0.58633E-07
     170   -0.2695415370E+03   -0.21193E-06    0.32799E-07
     180   -0.2695415388E+03   -0.15394E-06    0.21185E-07
     190   -0.2695415401E+03   -0.12053E-06    0.16405E-07
     200   -0.2695415410E+03   -0.99299E-07    0.87727E-08
  *** tolerance ok. iteration terminated
     >>>  ITERATION ENDED   AT Wed Jan  3 20:18:07 2018  <<<


==  Summary Of Results  ==
 
 number of electrons: spin up=  108.00000  down=  108.00000 (real space)

 total     energy    :  -0.2695415410E+03 (   -0.34119E+01/ion)
 total orbital energy:  -0.6605336992E+02 (   -0.61161E+00/electron)
 hartree   energy    :   0.2668375832E+04 (    0.24707E+02/electron)
 exc-corr  energy    :  -0.9477462544E+02 (   -0.87754E+00/electron)
 ion-ion   energy    :   0.2436486820E+04 (    0.30842E+02/ion)

 kinetic (planewave) :   0.2225326510E+03 (    0.20605E+01/electron)
 V_local (planewave) :  -0.5491740159E+04 (   -0.50849E+02/electron)
 V_nl    (planewave) :  -0.1042205863E+02 (   -0.96501E-01/electron)
 V_Coul  (planewave) :   0.5336751664E+04 (    0.49414E+02/electron)
 V_xc.   (planewave) :  -0.1231754664E+03 (   -0.11405E+01/electron)
 Virial Coefficient  :  -0.1296825520E+01

 orbital energies:
     0.8335875E-01 (   2.268eV)
     0.7538363E-01 (   2.051eV)
     0.6534050E-01 (   1.778eV)
     0.5881457E-01 (   1.600eV)
     0.4820207E-01 (   1.312eV)
     0.3318629E-01 (   0.903eV)
     0.1901672E-01 (   0.517eV)
     0.6493804E-02 (   0.177eV)
     0.1143132E-02 (   0.031eV)
    -0.7546228E-02 (  -0.205eV)
    -0.1153199E-01 (  -0.314eV)
    -0.1947656E-01 (  -0.530eV)
    -0.2552236E-01 (  -0.695eV)
    -0.3104514E-01 (  -0.845eV)
    -0.3558269E-01 (  -0.968eV)
    -0.3668856E-01 (  -0.998eV)
    -0.4323295E-01 (  -1.176eV)
    -0.4736343E-01 (  -1.289eV)
    -0.5075041E-01 (  -1.381eV)
    -0.7328797E-01 (  -1.994eV)
    -0.7599976E-01 (  -2.068eV)
    -0.8427862E-01 (  -2.293eV)
    -0.9308140E-01 (  -2.533eV)
    -0.1091878E+00 (  -2.971eV)
    -0.1105087E+00 (  -3.007eV)
    -0.1187304E+00 (  -3.231eV)
    -0.1209824E+00 (  -3.292eV)
    -0.1244715E+00 (  -3.387eV)
    -0.1286730E+00 (  -3.501eV)
    -0.1380726E+00 (  -3.757eV)
    -0.1414514E+00 (  -3.849eV)
    -0.1429315E+00 (  -3.889eV)
    -0.1486711E+00 (  -4.046eV)
    -0.1496492E+00 (  -4.072eV)
    -0.1525689E+00 (  -4.152eV)
    -0.1587296E+00 (  -4.319eV)
    -0.1636858E+00 (  -4.454eV)
    -0.1679370E+00 (  -4.570eV)
    -0.1699499E+00 (  -4.625eV)
    -0.1793821E+00 (  -4.881eV)
    -0.1841367E+00 (  -5.011eV)
    -0.1856175E+00 (  -5.051eV)
    -0.1922777E+00 (  -5.232eV)
    -0.1952713E+00 (  -5.314eV)
    -0.2037087E+00 (  -5.543eV)
    -0.2058189E+00 (  -5.601eV)
    -0.2115833E+00 (  -5.758eV)
    -0.2137909E+00 (  -5.818eV)
    -0.2192144E+00 (  -5.965eV)
    -0.2203407E+00 (  -5.996eV)
    -0.2270843E+00 (  -6.179eV)
    -0.2285043E+00 (  -6.218eV)
    -0.2352876E+00 (  -6.403eV)
    -0.2404079E+00 (  -6.542eV)
    -0.2425820E+00 (  -6.601eV)
    -0.2509403E+00 (  -6.828eV)
    -0.2548085E+00 (  -6.934eV)
    -0.2591597E+00 (  -7.052eV)
    -0.2651164E+00 (  -7.214eV)
    -0.2705617E+00 (  -7.362eV)
    -0.2772055E+00 (  -7.543eV)
    -0.2801456E+00 (  -7.623eV)
    -0.2859151E+00 (  -7.780eV)
    -0.2976340E+00 (  -8.099eV)
    -0.3095266E+00 (  -8.423eV)
    -0.3241506E+00 (  -8.821eV)
    -0.3269757E+00 (  -8.898eV)
    -0.3339334E+00 (  -9.087eV)
    -0.3389764E+00 (  -9.224eV)
    -0.3492592E+00 (  -9.504eV)
    -0.3596082E+00 (  -9.786eV)
    -0.3637765E+00 (  -9.899eV)
    -0.3666465E+00 (  -9.977eV)
    -0.3746035E+00 ( -10.194eV)
    -0.3763262E+00 ( -10.240eV)
    -0.3863155E+00 ( -10.512eV)
    -0.3990383E+00 ( -10.858eV)
    -0.4173347E+00 ( -11.356eV)
    -0.4226868E+00 ( -11.502eV)
    -0.4327223E+00 ( -11.775eV)
    -0.4411226E+00 ( -12.004eV)
    -0.4633251E+00 ( -12.608eV)
    -0.4728884E+00 ( -12.868eV)
    -0.4843568E+00 ( -13.180eV)
    -0.5110332E+00 ( -13.906eV)
    -0.5140244E+00 ( -13.987eV)
    -0.5378746E+00 ( -14.636eV)
    -0.5529992E+00 ( -15.048eV)
    -0.5680505E+00 ( -15.458eV)
    -0.6104404E+00 ( -16.611eV)
    -0.6116141E+00 ( -16.643eV)
    -0.6267002E+00 ( -17.054eV)
    -0.6463500E+00 ( -17.588eV)
    -0.6502402E+00 ( -17.694eV)
    -0.6588622E+00 ( -17.929eV)
    -0.6905593E+00 ( -18.791eV)
    -0.6971469E+00 ( -18.970eV)
    -0.7226565E+00 ( -19.665eV)
    -0.7364878E+00 ( -20.041eV)
    -0.7443469E+00 ( -20.255eV)
    -0.7452300E+00 ( -20.279eV)
    -0.7574166E+00 ( -20.611eV)
    -0.7852689E+00 ( -21.368eV)
    -0.7935327E+00 ( -21.593eV)
    -0.8091280E+00 ( -22.018eV)
    -0.8718099E+00 ( -23.723eV)
    -0.9845101E+00 ( -26.790eV)
    -0.1139684E+01 ( -31.013eV)

 Total PSPW energy     :  -0.2695415410E+03


=== Spin Contamination ===
 
 <Sexact^2> =     0.000000000000000     
 <S^2>      =     0.000000000000000     
 


== Center of Charge ==

spin up     (   -0.2850,    0.2712,    0.0304 )
spin down   (   -0.2850,    0.2712,    0.0304 )
     total  (   -0.2850,    0.2712,    0.0304 )
ionic       (   -0.0052,   -0.0034,    0.0036 )


== Molecular Dipole wrt Center of Mass ==

mu   =  (   60.4348,  -59.3159,   -5.7898 ) au
|mu| =    84.8779 au,     215.7256 Debye

 output psi filename:/lustre/atlas/scratch/hjjvd/csc249/.3808492/nwc_pweg_dat.movecs


== Timing ==

cputime in seconds
  prologue    :   0.470065E+03
  main loop   :   0.466570E+03
  epilogue    :   0.330465E+02
  total       :   0.969681E+03
  cputime/step:   0.101649E+01       (     459 evalulations,     198 linesearches)


Time spent doing                        total          step       percent
  total time                 :   0.970699E+03  0.211481E+01       100.0 %
  i/o time                   :   0.772844E+02  0.168376E+00         8.0 %
  FFTs                       :   0.760238E+02  0.165629E+00         7.8 %
  dot products               :   0.295611E+02  0.644032E-01         3.0 %
  geodesic                   :   0.165801E+03  0.361222E+00        17.1 %
  ffm_dgemm                  :   0.456874E+02  0.995368E-01         4.7 %
  fmf_dgemm                  :   0.128669E+03  0.280325E+00        13.3 %
  mmm_dgemm                  :   0.245417E+01  0.534678E-02         0.3 %
  m_diagonalize              :   0.195299E+01  0.425487E-02         0.2 %
  exchange correlation       :   0.408966E+02  0.890994E-01         4.2 %
  local pseudopotentials     :   0.157543E+00  0.343231E-03         0.0 %
  non-local pseudopotentials :   0.400736E+02  0.873062E-01         4.1 %
  structure factors          :   0.236113E+01  0.514408E-02         0.2 %
  phase factors              :   0.147104E-02  0.320489E-05         0.0 %
  masking and packing        :   0.260205E+02  0.566895E-01         2.7 %
  queue fft                  :   0.105307E+03  0.229428E+00        10.8 %
  queue fft (serial)         :   0.309907E+02  0.675179E-01         3.2 %
  queue fft (message passing):   0.711183E+02  0.154942E+00         7.3 %
  non-local psp FFM          :   0.191742E+02  0.417738E-01         2.0 %
  non-local psp FMF          :   0.177228E+02  0.386117E-01         1.8 %
  non-local psp FFM A        :   0.113387E+01  0.247030E-02         0.1 %
  non-local psp FFM B        :   0.161377E+02  0.351585E-01         1.7 %
 
     >>>  JOB COMPLETED     AT Wed Jan  3 20:18:41 2018  <<<
          ****************************************************
          *                                                  *
          *               NWPW PSPW Calculation              *
          *                                                  *
          * [ (Grassmann/Stiefel manifold implementation)  ] *
          *                                                  *
          *      [ NorthWest Chemistry implementation ]      *
          *                                                  *
          *            version #5.10   06/12/02              *
          *                                                  *
          *    This code was developed by Eric J. Bylaska,   *
          *    and was based upon algorithms and code        *
          *    developed by the group of Prof. John H. Weare *
          *                                                  *
          ****************************************************
     >>>  JOB STARTED       AT Wed Jan  3 20:18:42 2018  <<<
          ================ input data ========================
 pseudopotential is not correctly formatted:
 N.vpp                                             
 
 Generated formatted_filename: 
 /lustre/atlas/scratch/hjjvd/csc249/.3808492/N.vpp
 pseudopotential is not correctly formatted:
 C.vpp                                             
 
 Generated formatted_filename: 
 /lustre/atlas/scratch/hjjvd/csc249/.3808492/C.vpp
 pseudopotential is not correctly formatted:
 O.vpp                                             
 
 Generated formatted_filename: 
 /lustre/atlas/scratch/hjjvd/csc249/.3808492/O.vpp
 pseudopotential is not correctly formatted:
 H.vpp                                             
 
 Generated formatted_filename: 
 /lustre/atlas/scratch/hjjvd/csc249/.3808492/H.vpp
 Error reading psi - bad grid
 nfft :                      150                      150 
                      160
 ngrid:                      180                      180 
                      192
 Error reading psi - bad grid
 nfft :                      150                      150 
                      160
 ngrid:                      180                      180 
                      192
 Error reading psi - bad grid
 
 Grid is being converted:
 ------------------------
 
 To turn off automatic grid conversion:
 
 set nwpw:psi_nogrid .false.
 
 old_filename: nwc_pweg_dat.movecs                               
 new_filename: nwc_pweg_dat.movecs                               
 converting  : 150x150x160 --> 180x180x192
converting .... psi:    1 spin: 1
converting .... psi:    2 spin: 1
converting .... psi:    3 spin: 1
converting .... psi:    4 spin: 1
converting .... psi:    5 spin: 1
converting .... psi:    6 spin: 1
converting .... psi:    7 spin: 1
converting .... psi:    8 spin: 1
converting .... psi:    9 spin: 1
converting .... psi:   10 spin: 1
converting .... psi:   11 spin: 1
converting .... psi:   12 spin: 1
converting .... psi:   13 spin: 1
converting .... psi:   14 spin: 1
converting .... psi:   15 spin: 1
converting .... psi:   16 spin: 1
converting .... psi:   17 spin: 1
converting .... psi:   18 spin: 1
converting .... psi:   19 spin: 1
converting .... psi:   20 spin: 1
converting .... psi:   21 spin: 1
converting .... psi:   22 spin: 1
converting .... psi:   23 spin: 1
converting .... psi:   24 spin: 1
converting .... psi:   25 spin: 1
converting .... psi:   26 spin: 1
converting .... psi:   27 spin: 1
converting .... psi:   28 spin: 1
converting .... psi:   29 spin: 1
converting .... psi:   30 spin: 1
converting .... psi:   31 spin: 1
converting .... psi:   32 spin: 1
converting .... psi:   33 spin: 1
converting .... psi:   34 spin: 1
converting .... psi:   35 spin: 1
converting .... psi:   36 spin: 1
converting .... psi:   37 spin: 1
converting .... psi:   38 spin: 1
converting .... psi:   39 spin: 1
converting .... psi:   40 spin: 1
converting .... psi:   41 spin: 1
converting .... psi:   42 spin: 1
converting .... psi:   43 spin: 1
converting .... psi:   44 spin: 1
converting .... psi:   45 spin: 1
converting .... psi:   46 spin: 1
converting .... psi:   47 spin: 1
converting .... psi:   48 spin: 1
converting .... psi:   49 spin: 1
converting .... psi:   50 spin: 1
converting .... psi:   51 spin: 1
converting .... psi:   52 spin: 1
converting .... psi:   53 spin: 1
converting .... psi:   54 spin: 1
converting .... psi:   55 spin: 1
converting .... psi:   56 spin: 1
converting .... psi:   57 spin: 1
converting .... psi:   58 spin: 1
converting .... psi:   59 spin: 1
converting .... psi:   60 spin: 1
converting .... psi:   61 spin: 1
converting .... psi:   62 spin: 1
converting .... psi:   63 spin: 1
converting .... psi:   64 spin: 1
converting .... psi:   65 spin: 1
converting .... psi:   66 spin: 1
converting .... psi:   67 spin: 1
converting .... psi:   68 spin: 1
converting .... psi:   69 spin: 1
converting .... psi:   70 spin: 1
converting .... psi:   71 spin: 1
converting .... psi:   72 spin: 1
converting .... psi:   73 spin: 1
converting .... psi:   74 spin: 1
converting .... psi:   75 spin: 1
converting .... psi:   76 spin: 1
converting .... psi:   77 spin: 1
converting .... psi:   78 spin: 1
converting .... psi:   79 spin: 1
converting .... psi:   80 spin: 1
converting .... psi:   81 spin: 1
converting .... psi:   82 spin: 1
converting .... psi:   83 spin: 1
converting .... psi:   84 spin: 1
converting .... psi:   85 spin: 1
converting .... psi:   86 spin: 1
converting .... psi:   87 spin: 1
converting .... psi:   88 spin: 1
converting .... psi:   89 spin: 1
converting .... psi:   90 spin: 1
converting .... psi:   91 spin: 1
converting .... psi:   92 spin: 1
converting .... psi:   93 spin: 1
converting .... psi:   94 spin: 1
converting .... psi:   95 spin: 1
converting .... psi:   96 spin: 1
converting .... psi:   97 spin: 1
converting .... psi:   98 spin: 1
converting .... psi:   99 spin: 1
converting .... psi:  100 spin: 1
converting .... psi:  101 spin: 1
converting .... psi:  102 spin: 1
converting .... psi:  103 spin: 1
converting .... psi:  104 spin: 1
converting .... psi:  105 spin: 1
converting .... psi:  106 spin: 1
converting .... psi:  107 spin: 1
converting .... psi:  108 spin: 1

 input psi filename:/lustre/atlas/scratch/hjjvd/csc249/.3808492/nwc_pweg_dat.movecs

 number of processors used:       512
 processor grid           : 128 x   4
 parallel mapping         :2d hilbert
 parallel mapping         :  balanced
 number of threads        :         1
 parallel io              :       off

 options:
      boundary conditions  = aperiodic   (version4)
      electron spin        = restricted
      exchange-correlation = PBE96 (White and Bird) parameterization

 elements involved in the cluster:
      1: N   valence charge:  5.0000  lmax=  2
             comment    : Hamann pseudopotential
             pseudpotential type            :   0
             highest angular component      :   2
             local potential used           :   2
             number of non-local projections:   4
             aperiodic cutoff radius        :  1.000
             cutoff =   0.700   0.700   0.700
 
      2: C   valence charge:  4.0000  lmax=  2
             comment    : Parameterized (J.Phys.Chem., vol 100, page 6966) Hamman psp
             pseudpotential type            :   0
             highest angular component      :   2
             local potential used           :   2
             number of non-local projections:   4
             aperiodic cutoff radius        :  1.000
             cutoff =   0.800   0.850   0.850
 
      3: O   valence charge:  6.0000  lmax=  2
             comment    : Parameterized (Chem.Phys.Lett., vol 322, page 447) Hamman psp
             pseudpotential type            :   0
             highest angular component      :   2
             local potential used           :   2
             number of non-local projections:   4
             aperiodic cutoff radius        :  1.000
             cutoff =   0.700   0.700   0.700
 
      4: H   valence charge:  1.0000  lmax=  1
             comment    : Parameterized (Chem.Phys.Lett., vol 322, page 447) Hamman psp
             pseudpotential type            :   0
             highest angular component      :   1
             local potential used           :   1
             number of non-local projections:   1
             aperiodic cutoff radius        :  1.000
             cutoff =   0.800   0.800
 

 total charge:   1.000

 atomic composition:
     N   :    8     C   :   22     O   :    8     H   :   41

 number of electrons: spin up=   108 (  27 per task)  down=   108 (  27 per task) (Fourier space)
 number of orbitals : spin up=   108 (  27 per task)  down=   108 (  27 per task) (Fourier space)

 supercell:
      cell_name:  cell_default                                      
      lattice:    a1=<  23.000   0.000   0.000 >
                  a2=<   0.000  23.000   0.000 >
                  a3=<   0.000   0.000  24.000 >
      reciprocal: b1=<   0.273   0.000  -0.000 >
                  b2=<  -0.000   0.273  -0.000 >
                  b3=<   0.000   0.000   0.262 >
      lattice:    a=      23.000 b=     23.000 c=      24.000
                  alpha=  90.000 beta=  90.000 gamma=  90.000
                  omega=     12696.0

      density cutoff=300.000  fft=180x180x192(  1575574 waves    12309 per task)
      wavefnc cutoff=150.000  fft=180x180x192(   557045 waves     4351 per task)

 technical parameters:
      time step=      5.80     fictitious mass=  400000.0
      tolerance=0.100E-06 (energy)   0.100E-06 (density)
      maximum iterations =      1000 (   10 inner    100 outer )





== Energy Calculation ==


          ============ Grassmann lmbfgs iteration ============
     >>>  ITERATION STARTED AT Wed Jan  3 20:28:26 2018  <<<
    iter.           Energy         DeltaE       DeltaRho 
    ------------------------------------------------------
      10   -0.2694121268E+03   -0.13101E-03    0.80805E-03
      20   -0.2694125837E+03   -0.17279E-04    0.39315E-04
      30   -0.2694126687E+03   -0.48067E-05    0.35182E-05
      40   -0.2694126987E+03   -0.20537E-05    0.81648E-06
      50   -0.2694127128E+03   -0.10647E-05    0.25379E-06
      60   -0.2694127209E+03   -0.66394E-06    0.12004E-06
      70   -0.2694127262E+03   -0.42914E-06    0.69798E-07
      80   -0.2694127298E+03   -0.28103E-06    0.42805E-07
      90   -0.2694127323E+03   -0.21544E-06    0.26754E-07
     100   -0.2694127341E+03   -0.17079E-06    0.21177E-07
     110   -0.2694127356E+03   -0.13769E-06    0.19253E-07
[...]
 
 Generated formatted_filename: 
 /lustre/atlas/scratch/hjjvd/csc249/.3808492/C.vpp
 pseudopotential is not correctly formatted:
 O.vpp                                             
 
 Generated formatted_filename: 
 /lustre/atlas/scratch/hjjvd/csc249/.3808492/O.vpp
 pseudopotential is not correctly formatted:
 H.vpp                                             
 
 Generated formatted_filename: 
 /lustre/atlas/scratch/hjjvd/csc249/.3808492/H.vpp
 Error reading psi - bad grid
 nfft :                      180                      180 
                      192
 ngrid:                      210                      210 
                      224
 Error reading psi - bad grid
 nfft :                      180                      180 
                      192
 ngrid:                      210                      210 
                      224
 Error reading psi - bad grid
 
 Grid is being converted:
 ------------------------
 
 To turn off automatic grid conversion:
 
 set nwpw:psi_nogrid .false.
 
 old_filename: nwc_pweg_dat.movecs                               
 new_filename: nwc_pweg_dat.movecs                               
 converting  : 180x180x192 --> 210x210x224
converting .... psi:    1 spin: 1
converting .... psi:    2 spin: 1
converting .... psi:    3 spin: 1
converting .... psi:    4 spin: 1
converting .... psi:    5 spin: 1
converting .... psi:    6 spin: 1
converting .... psi:    7 spin: 1
converting .... psi:    8 spin: 1
converting .... psi:    9 spin: 1
converting .... psi:   10 spin: 1
converting .... psi:   11 spin: 1
converting .... psi:   12 spin: 1
converting .... psi:   13 spin: 1
converting .... psi:   14 spin: 1
converting .... psi:   15 spin: 1
converting .... psi:   16 spin: 1
converting .... psi:   17 spin: 1
converting .... psi:   18 spin: 1
converting .... psi:   19 spin: 1
converting .... psi:   20 spin: 1
converting .... psi:   21 spin: 1
converting .... psi:   22 spin: 1
converting .... psi:   23 spin: 1
converting .... psi:   24 spin: 1
converting .... psi:   25 spin: 1
converting .... psi:   26 spin: 1
converting .... psi:   27 spin: 1
converting .... psi:   28 spin: 1
converting .... psi:   29 spin: 1
converting .... psi:   30 spin: 1
converting .... psi:   31 spin: 1
converting .... psi:   32 spin: 1
converting .... psi:   33 spin: 1
converting .... psi:   34 spin: 1
converting .... psi:   35 spin: 1
converting .... psi:   36 spin: 1
converting .... psi:   37 spin: 1
converting .... psi:   38 spin: 1
converting .... psi:   39 spin: 1
converting .... psi:   40 spin: 1
converting .... psi:   41 spin: 1
converting .... psi:   42 spin: 1
converting .... psi:   43 spin: 1
converting .... psi:   44 spin: 1
converting .... psi:   45 spin: 1
converting .... psi:   46 spin: 1
converting .... psi:   47 spin: 1
converting .... psi:   48 spin: 1
converting .... psi:   49 spin: 1
converting .... psi:   50 spin: 1
converting .... psi:   51 spin: 1
converting .... psi:   52 spin: 1
converting .... psi:   53 spin: 1
converting .... psi:   54 spin: 1
converting .... psi:   55 spin: 1
converting .... psi:   56 spin: 1
converting .... psi:   57 spin: 1
converting .... psi:   58 spin: 1
converting .... psi:   59 spin: 1
converting .... psi:   60 spin: 1
converting .... psi:   61 spin: 1
converting .... psi:   62 spin: 1
converting .... psi:   63 spin: 1
converting .... psi:   64 spin: 1
converting .... psi:   65 spin: 1
converting .... psi:   66 spin: 1
converting .... psi:   67 spin: 1
converting .... psi:   68 spin: 1
converting .... psi:   69 spin: 1
converting .... psi:   70 spin: 1
converting .... psi:   71 spin: 1
converting .... psi:   72 spin: 1
converting .... psi:   73 spin: 1
converting .... psi:   74 spin: 1
converting .... psi:   75 spin: 1
converting .... psi:   76 spin: 1
converting .... psi:   77 spin: 1
converting .... psi:   78 spin: 1
converting .... psi:   79 spin: 1
converting .... psi:   80 spin: 1
converting .... psi:   81 spin: 1
converting .... psi:   82 spin: 1
converting .... psi:   83 spin: 1
converting .... psi:   84 spin: 1
converting .... psi:   85 spin: 1
converting .... psi:   86 spin: 1
converting .... psi:   87 spin: 1
converting .... psi:   88 spin: 1
converting .... psi:   89 spin: 1
converting .... psi:   90 spin: 1
converting .... psi:   91 spin: 1
converting .... psi:   92 spin: 1
converting .... psi:   93 spin: 1
converting .... psi:   94 spin: 1
converting .... psi:   95 spin: 1
converting .... psi:   96 spin: 1
converting .... psi:   97 spin: 1
converting .... psi:   98 spin: 1
converting .... psi:   99 spin: 1
converting .... psi:  100 spin: 1
converting .... psi:  101 spin: 1
converting .... psi:  102 spin: 1
converting .... psi:  103 spin: 1
converting .... psi:  104 spin: 1
converting .... psi:  105 spin: 1
converting .... psi:  106 spin: 1
converting .... psi:  107 spin: 1
converting .... psi:  108 spin: 1

 input psi filename:/lustre/atlas/scratch/hjjvd/csc249/.3808492/nwc_pweg_dat.movecs

 number of processors used:       512
 processor grid           : 128 x   4
 parallel mapping         :2d hilbert
 parallel mapping         :  balanced
 number of threads        :         1
 parallel io              :       off

 options:
      boundary conditions  = aperiodic   (version4)
      electron spin        = restricted
      exchange-correlation = PBE96 (White and Bird) parameterization

 elements involved in the cluster:
      1: N   valence charge:  5.0000  lmax=  2
             comment    : Hamann pseudopotential
             pseudpotential type            :   0
             highest angular component      :   2
             local potential used           :   2
             number of non-local projections:   4
             aperiodic cutoff radius        :  1.000
             cutoff =   0.700   0.700   0.700
 
      2: C   valence charge:  4.0000  lmax=  2
             comment    : Parameterized (J.Phys.Chem., vol 100, page 6966) Hamman psp
             pseudpotential type            :   0
             highest angular component      :   2
             local potential used           :   2
             number of non-local projections:   4
             aperiodic cutoff radius        :  1.000
             cutoff =   0.800   0.850   0.850
 
      3: O   valence charge:  6.0000  lmax=  2
             comment    : Parameterized (Chem.Phys.Lett., vol 322, page 447) Hamman psp
             pseudpotential type            :   0
             highest angular component      :   2
             local potential used           :   2
             number of non-local projections:   4
             aperiodic cutoff radius        :  1.000
             cutoff =   0.700   0.700   0.700
 
      4: H   valence charge:  1.0000  lmax=  1
             comment    : Parameterized (Chem.Phys.Lett., vol 322, page 447) Hamman psp
             pseudpotential type            :   0
             highest angular component      :   1
             local potential used           :   1
             number of non-local projections:   1
             aperiodic cutoff radius        :  1.000
             cutoff =   0.800   0.800
 

 total charge:   1.000

 atomic composition:
     N   :    8     C   :   22     O   :    8     H   :   41

 number of electrons: spin up=   108 (  27 per task)  down=   108 (  27 per task) (Fourier space)
 number of orbitals : spin up=   108 (  27 per task)  down=   108 (  27 per task) (Fourier space)

 supercell:
      cell_name:  cell_default                                      
      lattice:    a1=<  23.000   0.000   0.000 >
                  a2=<   0.000  23.000   0.000 >
                  a3=<   0.000   0.000  24.000 >
      reciprocal: b1=<   0.273   0.000  -0.000 >
                  b2=<  -0.000   0.273  -0.000 >
                  b3=<   0.000   0.000   0.262 >
      lattice:    a=      23.000 b=     23.000 c=      24.000
                  alpha=  90.000 beta=  90.000 gamma=  90.000
                  omega=     12696.0

      density cutoff=400.000  fft=210x210x224(  2425893 waves    18952 per task)
      wavefnc cutoff=200.000  fft=210x210x224(   857629 waves     6700 per task)

 technical parameters:
      time step=      5.80     fictitious mass=  400000.0
      tolerance=0.100E-06 (energy)   0.100E-06 (density)
      maximum iterations =      1000 (   10 inner    100 outer )





== Energy Calculation ==


          ============ Grassmann lmbfgs iteration ============
     >>>  ITERATION STARTED AT Wed Jan  3 20:52:53 2018  <<<
    iter.           Energy         DeltaE       DeltaRho 
    ------------------------------------------------------
      10   -0.2693177633E+03   -0.75384E-04    0.39632E-03
      20   -0.2693180563E+03   -0.11637E-04    0.27366E-04
      30   -0.2693181149E+03   -0.33027E-05    0.27095E-05
      40   -0.2693181353E+03   -0.13696E-05    0.66145E-06
      50   -0.2693181449E+03   -0.72272E-06    0.19744E-06
      60   -0.2693181503E+03   -0.43245E-06    0.81914E-07
      70   -0.2693181538E+03   -0.30899E-06    0.46154E-07
      80   -0.2693181564E+03   -0.22675E-06    0.30789E-07
      90   -0.2693181584E+03   -0.17855E-06    0.24346E-07
     100   -0.2693181602E+03   -0.16760E-06    0.22758E-07
     110   -0.2693181620E+03   -0.17142E-06    0.27498E-07
     -  10 steepest descent iterations performed
     120   -0.2693181624E+03   -0.87630E-07    0.13016E-10
  *** tolerance ok. iteration terminated
     >>>  ITERATION ENDED   AT Wed Jan  3 21:06:46 2018  <<<


==  Summary Of Results  ==
 
 number of electrons: spin up=  108.00000  down=  108.00000 (real space)

 total     energy    :  -0.2693181624E+03 (   -0.34091E+01/ion)
 total orbital energy:  -0.6587064044E+02 (   -0.60991E+00/electron)
 hartree   energy    :   0.2668333612E+04 (    0.24707E+02/electron)
 exc-corr  energy    :  -0.9476835070E+02 (   -0.87748E+00/electron)
 ion-ion   energy    :   0.2436486820E+04 (    0.30842E+02/ion)

 kinetic (planewave) :   0.2225136294E+03 (    0.20603E+01/electron)
 V_local (planewave) :  -0.5491457273E+04 (   -0.50847E+02/electron)
 V_nl    (planewave) :  -0.1042659928E+02 (   -0.96543E-01/electron)
 V_Coul  (planewave) :   0.5336667224E+04 (    0.49414E+02/electron)
 V_xc.   (planewave) :  -0.1231676207E+03 (   -0.11404E+01/electron)
 Virial Coefficient  :  -0.1296029689E+01

 orbital energies:
     0.8376851E-01 (   2.279eV)
     0.7536592E-01 (   2.051eV)
     0.6565308E-01 (   1.787eV)
     0.5882243E-01 (   1.601eV)
     0.4852900E-01 (   1.321eV)
     0.3432271E-01 (   0.934eV)
     0.1969566E-01 (   0.536eV)
     0.8175735E-02 (   0.222eV)
     0.2858011E-02 (   0.078eV)
    -0.5967015E-02 (  -0.162eV)
    -0.9291805E-02 (  -0.253eV)
    -0.1863723E-01 (  -0.507eV)
    -0.2442263E-01 (  -0.665eV)
    -0.2954115E-01 (  -0.804eV)
    -0.3452205E-01 (  -0.939eV)
    -0.3526221E-01 (  -0.960eV)
    -0.4248973E-01 (  -1.156eV)
    -0.4664240E-01 (  -1.269eV)
    -0.4952562E-01 (  -1.348eV)
    -0.7327698E-01 (  -1.994eV)
    -0.7461545E-01 (  -2.030eV)
    -0.8336723E-01 (  -2.269eV)
    -0.9170182E-01 (  -2.495eV)
    -0.1082929E+00 (  -2.947eV)
    -0.1098791E+00 (  -2.990eV)
    -0.1185141E+00 (  -3.225eV)
    -0.1195171E+00 (  -3.252eV)
    -0.1234178E+00 (  -3.358eV)
    -0.1280078E+00 (  -3.483eV)
    -0.1367901E+00 (  -3.722eV)
    -0.1404176E+00 (  -3.821eV)
    -0.1421354E+00 (  -3.868eV)
    -0.1480094E+00 (  -4.028eV)
    -0.1491396E+00 (  -4.058eV)
    -0.1519849E+00 (  -4.136eV)
    -0.1577194E+00 (  -4.292eV)
    -0.1625580E+00 (  -4.423eV)
    -0.1672537E+00 (  -4.551eV)
    -0.1685565E+00 (  -4.587eV)
    -0.1787094E+00 (  -4.863eV)
    -0.1835232E+00 (  -4.994eV)
    -0.1839727E+00 (  -5.006eV)
    -0.1906118E+00 (  -5.187eV)
    -0.1941815E+00 (  -5.284eV)
    -0.2033671E+00 (  -5.534eV)
    -0.2053259E+00 (  -5.587eV)
    -0.2109520E+00 (  -5.740eV)
    -0.2125725E+00 (  -5.784eV)
    -0.2184217E+00 (  -5.944eV)
    -0.2197176E+00 (  -5.979eV)
    -0.2270736E+00 (  -6.179eV)
    -0.2275815E+00 (  -6.193eV)
    -0.2348149E+00 (  -6.390eV)
    -0.2402016E+00 (  -6.536eV)
    -0.2417732E+00 (  -6.579eV)
    -0.2500450E+00 (  -6.804eV)
    -0.2532476E+00 (  -6.891eV)
    -0.2587242E+00 (  -7.040eV)
    -0.2646932E+00 (  -7.203eV)
    -0.2704321E+00 (  -7.359eV)
    -0.2765390E+00 (  -7.525eV)
    -0.2789469E+00 (  -7.591eV)
    -0.2850628E+00 (  -7.757eV)
    -0.2966183E+00 (  -8.071eV)
    -0.3087048E+00 (  -8.400eV)
    -0.3231661E+00 (  -8.794eV)
    -0.3267564E+00 (  -8.892eV)
    -0.3329131E+00 (  -9.059eV)
    -0.3382379E+00 (  -9.204eV)
    -0.3482085E+00 (  -9.475eV)
    -0.3582458E+00 (  -9.748eV)
    -0.3630300E+00 (  -9.879eV)
    -0.3660016E+00 (  -9.959eV)
    -0.3740100E+00 ( -10.177eV)
    -0.3756199E+00 ( -10.221eV)
    -0.3844436E+00 ( -10.461eV)
    -0.3989457E+00 ( -10.856eV)
    -0.4155547E+00 ( -11.308eV)
    -0.4219957E+00 ( -11.483eV)
    -0.4308957E+00 ( -11.725eV)
    -0.4407254E+00 ( -11.993eV)
    -0.4629576E+00 ( -12.598eV)
    -0.4716918E+00 ( -12.835eV)
    -0.4839183E+00 ( -13.168eV)
    -0.5104745E+00 ( -13.891eV)
    -0.5128076E+00 ( -13.954eV)
    -0.5375465E+00 ( -14.627eV)
    -0.5519827E+00 ( -15.020eV)
    -0.5675818E+00 ( -15.445eV)
    -0.6087364E+00 ( -16.565eV)
    -0.6119446E+00 ( -16.652eV)
    -0.6249868E+00 ( -17.007eV)
    -0.6450665E+00 ( -17.553eV)
    -0.6492672E+00 ( -17.668eV)
    -0.6581605E+00 ( -17.910eV)
    -0.6909297E+00 ( -18.801eV)
    -0.6976477E+00 ( -18.984eV)
    -0.7207024E+00 ( -19.611eV)
    -0.7363253E+00 ( -20.037eV)
    -0.7435537E+00 ( -20.233eV)
    -0.7447290E+00 ( -20.265eV)
    -0.7565750E+00 ( -20.588eV)
    -0.7839076E+00 ( -21.331eV)
    -0.7939349E+00 ( -21.604eV)
    -0.8100337E+00 ( -22.042eV)
    -0.8716603E+00 ( -23.719eV)
    -0.9852979E+00 ( -26.812eV)
    -0.1134070E+01 ( -30.860eV)

 Total PSPW energy     :  -0.2693181624E+03


=== Spin Contamination ===
 
 <Sexact^2> =     0.000000000000000     
 <S^2>      =     0.000000000000000     
 


== Center of Charge ==

spin up     (   -0.2721,    0.2337,    0.0266 )
spin down   (   -0.2721,    0.2337,    0.0266 )
     total  (   -0.2721,    0.2337,    0.0266 )
ionic       (   -0.0052,   -0.0034,    0.0036 )


== Molecular Dipole wrt Center of Mass ==

mu   =  (   57.6604,  -51.2279,   -4.9603 ) au
|mu| =    77.2892 au,     196.4382 Debye

 output psi filename:/lustre/atlas/scratch/hjjvd/csc249/.3808492/nwc_pweg_dat.movecs


== Timing ==

cputime in seconds
  prologue    :   0.763311E+03
  main loop   :   0.835044E+03
  epilogue    :   0.734177E+02
  total       :   0.167177E+04
  cputime/step:   0.319940E+01       (     261 evalulations,     111 linesearches)


Time spent doing                        total          step       percent
  total time                 :   0.167279E+04  0.640915E+01       100.0 %
  i/o time                   :   0.155204E+03  0.594652E+00         9.3 %
  FFTs                       :   0.122820E+03  0.470574E+00         7.3 %
  dot products               :   0.541320E+02  0.207402E+00         3.2 %
  geodesic                   :   0.252349E+03  0.966856E+00        15.1 %
  ffm_dgemm                  :   0.891283E+02  0.341488E+00         5.3 %
  fmf_dgemm                  :   0.203396E+03  0.779296E+00        12.2 %
  mmm_dgemm                  :   0.213482E+01  0.817939E-02         0.1 %
  m_diagonalize              :   0.107381E+01  0.411420E-02         0.1 %
  exchange correlation       :   0.710357E+02  0.272167E+00         4.2 %
  local pseudopotentials     :   0.432810E+00  0.165828E-02         0.0 %
  non-local pseudopotentials :   0.120563E+03  0.461928E+00         7.2 %
  structure factors          :   0.780525E+01  0.299052E-01         0.5 %
  phase factors              :   0.149703E-02  0.573575E-05         0.0 %
  masking and packing        :   0.477406E+02  0.182914E+00         2.9 %
  queue fft                  :   0.197145E+03  0.755343E+00        11.8 %
  queue fft (serial)         :   0.771426E+02  0.295566E+00         4.6 %
  queue fft (message passing):   0.114166E+03  0.437416E+00         6.8 %
  non-local psp FFM          :   0.471647E+02  0.180708E+00         2.8 %
  non-local psp FMF          :   0.621524E+02  0.238132E+00         3.7 %
  non-local psp FFM A        :   0.344461E+01  0.131977E-01         0.2 %
  non-local psp FFM B        :   0.378827E+02  0.145144E+00         2.3 %
 
     >>>  JOB COMPLETED     AT Wed Jan  3 21:08:01 2018  <<<

 Task  times  cpu:     4552.7s     wall:     4817.6s
 
 
                                NWChem Input Module
                                -------------------
 
 
 Summary of allocated global arrays
-----------------------------------
  No active global arrays



                         GA Statistics for process    0
                         ------------------------------

       create   destroy   get      put      acc     scatter   gather  read&inc
calls:    0        0        0        0        0        0        0        0     
number of processes/call 0.00e+00 0.00e+00 0.00e+00 0.00e+00 0.00e+00
bytes total:             0.00e+00 0.00e+00 0.00e+00 0.00e+00 0.00e+00 0.00e+00
bytes remote:            0.00e+00 0.00e+00 0.00e+00 0.00e+00 0.00e+00 0.00e+00
Max memory consumed for GA by this process: 0 bytes
 
MA_summarize_allocated_blocks: starting scan ...
MA_summarize_allocated_blocks: scan completed: 0 heap blocks, 0 stack blocks
MA usage statistics:

	allocation statistics:
					      heap	     stack
					      ----	     -----
	current number of blocks	         0	         0
	maximum number of blocks	       320	        15
	current total bytes		         0	         0
	maximum total bytes		 446018808	  21423160
	maximum total K-bytes		    446019	     21424
	maximum total M-bytes		       447	        22
 
 
                                     CITATION
                                     --------
                Please cite the following reference when publishing
                           results obtained with NWChem:
 
                 M. Valiev, E.J. Bylaska, N. Govind, K. Kowalski,
              T.P. Straatsma, H.J.J. van Dam, D. Wang, J. Nieplocha,
                        E. Apra, T.L. Windus, W.A. de Jong
                 "NWChem: a comprehensive and scalable open-source
                  solution for large scale molecular simulations"
                      Comput. Phys. Commun. 181, 1477 (2010)
                           doi:10.1016/j.cpc.2010.04.018
 
                                      AUTHORS
                                      -------
          E. Apra, E. J. Bylaska, W. A. de Jong, N. Govind, K. Kowalski,
       T. P. Straatsma, M. Valiev, H. J. J. van Dam, D. Wang, T. L. Windus,
        J. Hammond, J. Autschbach, K. Bhaskaran-Nair, J. Brabec, K. Lopata,
    S. A. Fischer, S. Krishnamoorthy, M. Jacquelin, W. Ma, M. Klemm, O. Villa,
      Y. Chen, V. Anisimov, F. Aquino, S. Hirata, M. T. Hackler, V. Konjkov,
      T. Risthaus, M. Malagoli, A. Marenich, A. Otero-de-la-Roza, J. Mullin,
        P. Nichols, R. Peverati, J. Pittner, Y. Zhao, P.-D. Fan, A. Fonari,
       M. Williamson, R. J. Harrison, J. R. Rehr, M. Dupuis, D. Silverstein,
    D. M. A. Smith, J. Nieplocha, V. Tipparaju, M. Krishnan, B. E. Van Kuiken,
        A. Vazquez-Mayagoitia, L. Jensen, M. Swart, Q. Wu, T. Van Voorhis,
     A. A. Auer, M. Nooijen, L. D. Crosby, E. Brown, G. Cisneros, G. I. Fann,
   H. Fruchtl, J. Garza, K. Hirao, R. A. Kendall, J. A. Nichols, K. Tsemekhman,
    K. Wolinski, J. Anchell, D. E. Bernholdt, P. Borowski, T. Clark, D. Clerc,
   H. Dachsel, M. J. O. Deegan, K. Dyall, D. Elwood, E. Glendening, M. Gutowski,
   A. C. Hess, J. Jaffe, B. G. Johnson, J. Ju, R. Kobayashi, R. Kutteh, Z. Lin,
   R. Littlefield, X. Long, B. Meng, T. Nakajima, S. Niu, L. Pollack, M. Rosing,
   K. Glaesemann, G. Sandrone, M. Stave, H. Taylor, G. Thomas, J. H. van Lenthe,
                               A. T. Wong, Z. Zhang.

 Total times  cpu:     4552.8s     wall:     4817.9s
Application 16583325 resources: utime ~2454853s, stime ~12139s, Rss ~421704, inblocks ~96194411, outblocks ~119093923
