/autofs/nccs-svm1_home1/hjjvd
CODAR
NWX_TA
Nwchem-6.6.revision27746-src.2015-10-20.tar.gz
bin
lib
man
summitdev
titan
tksvn
PE 0: MPICH Warning: DMAPP optimizations are not supported if libdmapp is not linked into your application. Please see the mpi man page. Disabling all requested DMAPP optimizations.
 argument  1 = nwc_pweg_edgrtls.nw
 


============================== echo of input deck ==============================
echo
start nwc_pweg_dat
title "E and Grad of 1UBQ-EDGRTLS"
geometry noautoz
   load format pdb "edgrtls.pdb"
end
charge +1
nwpw
  simulation_cell
    boundary_conditions aperiodic
    lattice
      # coordinate ranges and lattice parameters.
      # 20 - 36
      # 12 - 25
      #  9 - 26
      lat_a 26.0
      lat_b 23.0
      lat_c 27.0
    end
  end
  xc pbe96
  lmbfgs
end
task pspw energy
================================================================================


                                         
                                         
 
 
              Northwest Computational Chemistry Package (NWChem) 6.8
              ------------------------------------------------------
 
 
                    Environmental Molecular Sciences Laboratory
                       Pacific Northwest National Laboratory
                                Richland, WA 99352
 
                              Copyright (c) 1994-2015
                       Pacific Northwest National Laboratory
                            Battelle Memorial Institute
 
             NWChem is an open-source computational chemistry package
                        distributed under the terms of the
                      Educational Community License (ECL) 2.0
             A copy of the license is included with this distribution
                              in the LICENSE.TXT file
 
                                  ACKNOWLEDGMENT
                                  --------------

            This software and its documentation were developed at the
            EMSL at Pacific Northwest National Laboratory, a multiprogram
            national laboratory, operated for the U.S. Department of Energy
            by Battelle under Contract Number DE-AC05-76RL01830. Support
            for this work was provided by the Department of Energy Office
            of Biological and Environmental Research, Office of Basic
            Energy Sciences, and the Office of Advanced Scientific Computing.


           Job information
           ---------------

    hostname        = nid06275
    program         = /lustre/atlas/scratch/hjjvd/csc249/.3801549/nwchem
    date            = Thu Dec 28 23:15:25 2017

    compiled        = Sat_Dec_09_23:43:41_2017
    source          = /ccs/home/hjjvd/titan/nwchem-1
    nwchem branch   = Development
    nwchem revision = nwchem_on_git-33-g3c4cbf4646b30649e18a6f8f9c6df3a50082e145
    ga revision     = nwchem_on_git-33-g3c4cbf4
    use scalapack   = T
    input           = nwc_pweg_edgrtls.nw
    prefix          = nwc_pweg_dat.
    data base       = /lustre/atlas/scratch/hjjvd/csc249/.3801549/nwc_pweg_dat.db
    status          = startup
    nproc           =      512
    time left       =     -1s



           Memory information
           ------------------

    heap     =    6553594 doubles =     50.0 Mbytes
    stack    =  104857599 doubles =    800.0 Mbytes
    global   =  268435456 doubles =   2048.0 Mbytes (distinct from heap & stack)
    total    =  379846649 doubles =   2898.0 Mbytes
    verify   = yes
    hardfail = no 


           Directory information
           ---------------------
 
  0 permanent = /lustre/atlas/scratch/hjjvd/csc249/.3801549
  0 scratch   = /lustre/atlas/scratch/hjjvd/csc249/.3801549
 
 
 
 
                                NWChem Input Module
                                -------------------
 
 
                            E and Grad of 1UBQ-EDGRTLS
                            --------------------------

 Scaling coordinates for geometry "geometry" by  1.889725989
 (inverse scale =  0.529177249)

 C1  symmetry detected
 
 
                             Geometry "geometry" -> ""
                             -------------------------
 
 Output coordinates in angstroms (scale by  1.889725989 to convert to a.u.)
 
  No.       Tag          Charge          X              Y              Z
 ---- ---------------- ---------- -------------- -------------- --------------
    1 N                    7.0000     1.53217412     3.39915715    -3.67876438
    2 C                    6.0000     1.16056319     4.48124943    -2.74196578
    3 C                    6.0000     1.47009982     4.06721445    -1.32987651
    4 O                    8.0000     1.24085945     2.91156838    -0.98165816
    5 C                    6.0000    -0.32214123     4.74150593    -2.92005606
    6 C                    6.0000    -1.01549223     5.71893621    -1.94257335
    7 C                    6.0000    -2.03717272     6.57491775    -2.66277581
    8 O                    8.0000    -2.82466930     7.33695447    -2.14060422
    9 O                    8.0000    -1.90993748     6.35694165    -3.90854811
   10 N                    7.0000     1.97651446     4.93892474    -0.49407547
   11 C                    6.0000     2.40760132     4.67129922     0.87369889
   12 C                    6.0000     1.51438205     3.90387739     1.83313157
   13 O                    8.0000     2.05479754     3.11643278     2.66118899
   14 C                    6.0000     2.83855193     6.02110052     1.52006876
   15 C                    6.0000     4.21652015     6.45515102     1.06267094
   16 O                    8.0000     4.67304959     7.54710056     1.46686899
   17 O                    8.0000     4.87324449     5.75811539     0.27689458
   18 N                    7.0000     0.23236260     4.18900811     1.83884230
   19 C                    6.0000    -0.75370752     3.57737223     2.74855120
   20 C                    6.0000    -1.29146361     2.24845268     2.33494847
   21 O                    8.0000    -1.98564916     1.56436827     3.12103048
   22 N                    7.0000    -1.00685242     1.78228908     1.12435813
   23 C                    6.0000    -1.43863876     0.44406579     0.67206622
   24 C                    6.0000    -0.40100656    -0.56713469     1.13575040
   25 O                    8.0000     0.74955811    -0.19748967     1.45534780
   26 C                    6.0000    -1.55798869     0.36471373    -0.85159478
   27 C                    6.0000    -2.49712509     1.42216362    -1.46650254
   28 C                    6.0000    -3.93568031     0.98141343    -1.07046700
   29 N                    7.0000    -4.41187445     2.02241253    -0.18738716
   30 C                    6.0000    -4.93946135     2.07192155     0.99648696
   31 N                    7.0000    -5.20322260     1.03399620     1.76755178
   32 N                    7.0000    -5.18876339     3.29893219     1.52593042
   33 N                    7.0000    -0.74975932    -1.82844280     1.08792415
   34 C                    6.0000     0.14844397    -2.95155751     1.43981933
   35 C                    6.0000     0.59141924    -3.60192061     0.10783970
   36 O                    8.0000     0.00289143    -3.33931930    -0.93594839
   37 C                    6.0000    -0.58291242    -4.01252431     2.31660966
   38 O                    8.0000    -1.70287157    -4.43941054     1.42617626
   39 C                    6.0000    -1.14755488    -3.53824481     3.64073687
   40 N                    7.0000     1.62945225    -4.40855393     0.18811533
   41 C                    6.0000     2.14086751    -5.15477260    -0.97440139
   42 C                    6.0000     1.03471192    -6.08245557    -1.46996888
   43 O                    8.0000     0.85997868    -6.18355335    -2.65393912
   44 C                    6.0000     3.41294685    -5.91204803    -0.53804134
   45 C                    6.0000     4.60709266    -5.11159307    -0.01939249
   46 C                    6.0000     5.77152855    -6.04820295     0.34215419
   47 C                    6.0000     5.15755509    -4.20324361    -1.11659000
   48 N                    7.0000     0.23779225    -6.64575319    -0.53822544
   49 C                    6.0000    -0.83044480    -7.55793830    -1.01779289
   50 C                    6.0000    -1.85216953    -6.84134757    -1.87249887
   51 O                    8.0000    -2.44699565    -7.45560212    -2.80877353
   52 C                    6.0000    -1.52516669    -8.27081017     0.15100572
   53 O                    8.0000    -2.09970175    -7.34308293     1.02748655
   54 H                    1.0000     0.88327136     2.54007937    -3.79074461
   55 H                    1.0000     1.75296828     5.43146560    -2.95524361
   56 H                    1.0000    -0.46855395     5.15492354    -3.97176191
   57 H                    1.0000    -0.81251245     3.73532163    -2.70806497
   58 H                    1.0000    -1.53953222     5.12026611    -1.12607950
   59 H                    1.0000    -0.22320238     6.40271619    -1.48986181
   60 H                    1.0000    -1.17564150     5.67001957    -4.25608440
   61 H                    1.0000     2.08600423     5.95497038    -0.85196408
   62 H                    1.0000     3.24774696     3.91631552     0.72242126
   63 H                    1.0000     2.08409453     6.82494830     1.23013121
   64 H                    1.0000     2.87231502     5.87558144     2.65037767
   65 H                    1.0000     4.09621575     8.15508325     2.12182071
   66 H                    1.0000    -0.12480519     4.92340236     1.12782736
   67 H                    1.0000    -0.25679437     3.45095028     3.76630206
   68 H                    1.0000    -1.64858119     4.28350882     2.74965625
   69 H                    1.0000    -0.43819217     2.40521078     0.44500250
   70 H                    1.0000    -2.46649866     0.22654360     1.11331912
   71 H                    1.0000    -0.51914054     0.50497852    -1.29974352
   72 H                    1.0000    -2.00793906    -0.65393059    -1.09295223
   73 H                    1.0000    -2.26633791     2.45474871    -1.04275223
   74 H                    1.0000    -2.37207971     1.49238916    -2.59767981
   75 H                    1.0000    -4.59950197     0.90294772    -1.99351518
   76 H                    1.0000    -3.94927881    -0.04402869    -0.57341817
   77 H                    1.0000    -4.30043214     3.00742762    -0.62303367
   78 H                    1.0000    -4.97652720     0.03291203     1.42359732
   79 H                    1.0000    -5.64643607     1.18360065     2.74376504
   80 H                    1.0000    -4.94697281     4.19090532     0.96230532
   81 H                    1.0000    -1.75820095    -2.06503869     0.77132211
   82 H                    1.0000     1.03594753    -2.56615623     2.04308484
   83 H                    1.0000     0.15789229    -4.81555125     2.63998268
   84 H                    1.0000    -2.63450119    -4.49397071     2.00814915
   85 H                    1.0000    -2.22958305    -3.88229610     3.73817270
   86 H                    1.0000    -0.53222145    -3.97541622     4.49446513
   87 H                    1.0000    -1.10566871    -2.40000875     3.68570587
   88 H                    1.0000     2.12498826    -4.52758726     1.14366079
   89 H                    1.0000     2.42750688    -4.46945796    -1.83926537
   90 H                    1.0000     3.10643849    -6.63088216     0.29162793
   91 H                    1.0000     3.79690322    -6.38357708    -1.50237420
   92 H                    1.0000     4.23752500    -4.52109526     0.88329299
   93 H                    1.0000     5.71577735    -6.98957471    -0.29876548
   94 H                    1.0000     6.76166468    -5.51588014     0.15044384
   95 H                    1.0000     5.70071552    -6.33447673     1.44407381
   96 H                    1.0000     4.79084100    -4.56862606    -2.13271816
   97 H                    1.0000     4.79554986    -3.13599804    -0.94292331
   98 H                    1.0000     6.29746799    -4.22689348    -1.09298361
   99 H                    1.0000     0.37169492    -6.44088033     0.51580406
  100 H                    1.0000    -0.31817472    -8.34041438    -1.66934222
  101 H                    1.0000    -2.34177698    -8.95324043    -0.25900108
  102 H                    1.0000    -0.74851854    -8.88009829     0.72077378
  103 H                    1.0000    -3.17807346    -7.26679462     0.82529719
  104 H                    1.0000     1.62120391     3.82458490    -4.60151837
  105 H                    1.0000    -5.58888485     3.37639600     2.42164643
  106 H                    1.0000    -2.06631536    -5.84766916    -1.69254948
 
      Atomic Mass 
      ----------- 
 
      N                 14.003070
      C                 12.000000
      O                 15.994910
      H                  1.007825
 

 Effective nuclear repulsion energy (a.u.)    7791.2149099775

            Nuclear Dipole moment (a.u.) 
            ----------------------------
        X                 Y               Z
 ---------------- ---------------- ----------------
    -0.0000000000     0.0000000000    -0.0000000000
 
 
            XYZ format geometry
            -------------------
   106
 geometry
 N                     1.53217412     3.39915715    -3.67876438
 C                     1.16056319     4.48124943    -2.74196578
 C                     1.47009982     4.06721445    -1.32987651
 O                     1.24085945     2.91156838    -0.98165816
 C                    -0.32214123     4.74150593    -2.92005606
 C                    -1.01549223     5.71893621    -1.94257335
 C                    -2.03717272     6.57491775    -2.66277581
 O                    -2.82466930     7.33695447    -2.14060422
 O                    -1.90993748     6.35694165    -3.90854811
 N                     1.97651446     4.93892474    -0.49407547
 C                     2.40760132     4.67129922     0.87369889
 C                     1.51438205     3.90387739     1.83313157
 O                     2.05479754     3.11643278     2.66118899
 C                     2.83855193     6.02110052     1.52006876
 C                     4.21652015     6.45515102     1.06267094
 O                     4.67304959     7.54710056     1.46686899
 O                     4.87324449     5.75811539     0.27689458
 N                     0.23236260     4.18900811     1.83884230
 C                    -0.75370752     3.57737223     2.74855120
 C                    -1.29146361     2.24845268     2.33494847
 O                    -1.98564916     1.56436827     3.12103048
 N                    -1.00685242     1.78228908     1.12435813
 C                    -1.43863876     0.44406579     0.67206622
 C                    -0.40100656    -0.56713469     1.13575040
 O                     0.74955811    -0.19748967     1.45534780
 C                    -1.55798869     0.36471373    -0.85159478
 C                    -2.49712509     1.42216362    -1.46650254
 C                    -3.93568031     0.98141343    -1.07046700
 N                    -4.41187445     2.02241253    -0.18738716
 C                    -4.93946135     2.07192155     0.99648696
 N                    -5.20322260     1.03399620     1.76755178
 N                    -5.18876339     3.29893219     1.52593042
 N                    -0.74975932    -1.82844280     1.08792415
 C                     0.14844397    -2.95155751     1.43981933
 C                     0.59141924    -3.60192061     0.10783970
 O                     0.00289143    -3.33931930    -0.93594839
 C                    -0.58291242    -4.01252431     2.31660966
 O                    -1.70287157    -4.43941054     1.42617626
 C                    -1.14755488    -3.53824481     3.64073687
 N                     1.62945225    -4.40855393     0.18811533
 C                     2.14086751    -5.15477260    -0.97440139
 C                     1.03471192    -6.08245557    -1.46996888
 O                     0.85997868    -6.18355335    -2.65393912
 C                     3.41294685    -5.91204803    -0.53804134
 C                     4.60709266    -5.11159307    -0.01939249
 C                     5.77152855    -6.04820295     0.34215419
 C                     5.15755509    -4.20324361    -1.11659000
 N                     0.23779225    -6.64575319    -0.53822544
 C                    -0.83044480    -7.55793830    -1.01779289
 C                    -1.85216953    -6.84134757    -1.87249887
 O                    -2.44699565    -7.45560212    -2.80877353
 C                    -1.52516669    -8.27081017     0.15100572
 O                    -2.09970175    -7.34308293     1.02748655
 H                     0.88327136     2.54007937    -3.79074461
 H                     1.75296828     5.43146560    -2.95524361
 H                    -0.46855395     5.15492354    -3.97176191
 H                    -0.81251245     3.73532163    -2.70806497
 H                    -1.53953222     5.12026611    -1.12607950
 H                    -0.22320238     6.40271619    -1.48986181
 H                    -1.17564150     5.67001957    -4.25608440
 H                     2.08600423     5.95497038    -0.85196408
 H                     3.24774696     3.91631552     0.72242126
 H                     2.08409453     6.82494830     1.23013121
 H                     2.87231502     5.87558144     2.65037767
 H                     4.09621575     8.15508325     2.12182071
 H                    -0.12480519     4.92340236     1.12782736
 H                    -0.25679437     3.45095028     3.76630206
 H                    -1.64858119     4.28350882     2.74965625
 H                    -0.43819217     2.40521078     0.44500250
 H                    -2.46649866     0.22654360     1.11331912
 H                    -0.51914054     0.50497852    -1.29974352
 H                    -2.00793906    -0.65393059    -1.09295223
 H                    -2.26633791     2.45474871    -1.04275223
 H                    -2.37207971     1.49238916    -2.59767981
 H                    -4.59950197     0.90294772    -1.99351518
 H                    -3.94927881    -0.04402869    -0.57341817
 H                    -4.30043214     3.00742762    -0.62303367
 H                    -4.97652720     0.03291203     1.42359732
 H                    -5.64643607     1.18360065     2.74376504
 H                    -4.94697281     4.19090532     0.96230532
 H                    -1.75820095    -2.06503869     0.77132211
 H                     1.03594753    -2.56615623     2.04308484
 H                     0.15789229    -4.81555125     2.63998268
 H                    -2.63450119    -4.49397071     2.00814915
 H                    -2.22958305    -3.88229610     3.73817270
 H                    -0.53222145    -3.97541622     4.49446513
 H                    -1.10566871    -2.40000875     3.68570587
 H                     2.12498826    -4.52758726     1.14366079
 H                     2.42750688    -4.46945796    -1.83926537
 H                     3.10643849    -6.63088216     0.29162793
 H                     3.79690322    -6.38357708    -1.50237420
 H                     4.23752500    -4.52109526     0.88329299
 H                     5.71577735    -6.98957471    -0.29876548
 H                     6.76166468    -5.51588014     0.15044384
 H                     5.70071552    -6.33447673     1.44407381
 H                     4.79084100    -4.56862606    -2.13271816
 H                     4.79554986    -3.13599804    -0.94292331
 H                     6.29746799    -4.22689348    -1.09298361
 H                     0.37169492    -6.44088033     0.51580406
 H                    -0.31817472    -8.34041438    -1.66934222
 H                    -2.34177698    -8.95324043    -0.25900108
 H                    -0.74851854    -8.88009829     0.72077378
 H                    -3.17807346    -7.26679462     0.82529719
 H                     1.62120391     3.82458490    -4.60151837
 H                    -5.58888485     3.37639600     2.42164643
 H                    -2.06631536    -5.84766916    -1.69254948
 
 ==============================================================================
                                internuclear distances
 ------------------------------------------------------------------------------
       center one      |      center two      | atomic units |  angstroms
 ------------------------------------------------------------------------------
    2 C                |   1 N                |     2.79437  |     1.47872
    3 C                |   2 C                |     2.84166  |     1.50374
    4 O                |   3 C                |     2.32162  |     1.22855
    5 C                |   2 C                |     2.86458  |     1.51587
    6 C                |   5 C                |     2.92241  |     1.54647
    7 C                |   6 C                |     2.86294  |     1.51500
    8 O                |   7 C                |     2.29391  |     1.21388
    9 O                |   7 C                |     2.40200  |     1.27108
   10 N                |   3 C                |     2.47467  |     1.30954
   11 C                |  10 N                |     2.75684  |     1.45886
   12 C                |  11 C                |     2.87045  |     1.51898
   13 O                |  12 C                |     2.38869  |     1.26404
   14 C                |  11 C                |     2.94305  |     1.55739
   15 C                |  14 C                |     2.86367  |     1.51539
   16 O                |  15 C                |     2.36340  |     1.25066
   17 O                |  15 C                |     2.34097  |     1.23879
   18 N                |  12 C                |     2.48188  |     1.31336
   19 C                |  18 N                |     2.78631  |     1.47445
   20 C                |  19 C                |     2.81961  |     1.49207
   21 O                |  20 C                |     2.36615  |     1.25211
   22 N                |  20 C                |     2.50974  |     1.32810
   23 C                |  22 N                |     2.79133  |     1.47711
   24 C                |  23 C                |     2.87475  |     1.52125
   25 O                |  24 C                |     2.36222  |     1.25003
   26 C                |  23 C                |     2.89201  |     1.53039
   27 C                |  26 C                |     2.91428  |     1.54217
   28 C                |  27 C                |     2.94006  |     1.55581
   29 N                |  28 C                |     2.73212  |     1.44578
   30 C                |  29 N                |     2.45108  |     1.29706
   31 N                |  30 C                |     2.49372  |     1.31962
   32 N                |  30 C                |     2.56893  |     1.35942
   33 N                |  24 C                |     2.47461  |     1.30951
   34 C                |  33 N                |     2.79781  |     1.48054
   35 C                |  34 C                |     2.92350  |     1.54705
   36 O                |  35 C                |     2.31815  |     1.22671
   37 C                |  34 C                |     2.94536  |     1.55862
   38 O                |  37 C                |     2.82159  |     1.49312
   39 C                |  37 C                |     2.86409  |     1.51561
   40 N                |  35 C                |     2.48886  |     1.31705
   41 C                |  40 N                |     2.78363  |     1.47304
   42 C                |  41 C                |     2.88439  |     1.52636
   43 O                |  42 C                |     2.26967  |     1.20106
   44 C                |  41 C                |     2.91659  |     1.54339
   45 C                |  44 C                |     2.88807  |     1.52830
   46 C                |  45 C                |     2.90543  |     1.53749
   47 C                |  45 C                |     2.88575  |     1.52707
   48 N                |  42 C                |     2.54975  |     1.34927
   49 C                |  48 N                |     2.80495  |     1.48432
   50 C                |  49 C                |     2.85839  |     1.51260
   51 O                |  50 C                |     2.39611  |     1.26797
   52 C                |  49 C                |     2.90115  |     1.53522
   53 O                |  52 C                |     2.64493  |     1.39964
   54 H                |   1 N                |     2.04547  |     1.08242
   55 H                |   2 C                |     2.15407  |     1.13989
   56 H                |   5 C                |     2.15332  |     1.13949
   57 H                |   5 C                |     2.15280  |     1.13922
   58 H                |   6 C                |     2.15436  |     1.14004
   59 H                |   6 C                |     2.15481  |     1.14027
   60 H                |   9 O                |     2.01044  |     1.06388
   61 H                |  10 N                |     2.04616  |     1.08278
   62 H                |  11 C                |     2.15357  |     1.13962
   63 H                |  14 C                |     2.15416  |     1.13993
   64 H                |  14 C                |     2.15455  |     1.14014
   65 H                |  16 O                |     2.01000  |     1.06365
   66 H                |  18 N                |     2.04619  |     1.08280
   67 H                |  19 C                |     2.15356  |     1.13961
   68 H                |  19 C                |     2.15415  |     1.13992
   69 H                |  22 N                |     2.04661  |     1.08302
   70 H                |  23 C                |     2.15339  |     1.13952
   71 H                |  26 C                |     2.15438  |     1.14005
   72 H                |  26 C                |     2.15325  |     1.13945
   73 H                |  27 C                |     2.15384  |     1.13976
   74 H                |  27 C                |     2.15473  |     1.14023
   75 H                |  28 C                |     2.15365  |     1.13966
   76 H                |  28 C                |     2.15360  |     1.13964
   77 H                |  29 N                |     2.04620  |     1.08280
   78 H                |  31 N                |     2.04568  |     1.08253
   79 H                |  31 N                |     2.04563  |     1.08250
   80 H                |  32 N                |     2.04558  |     1.08247
   81 H                |  33 N                |     2.04682  |     1.08313
   82 H                |  34 C                |     2.15472  |     1.14023
   83 H                |  37 C                |     2.15314  |     1.13939
   85 H                |  39 C                |     2.15350  |     1.13958
   86 H                |  39 C                |     2.15346  |     1.13956
   87 H                |  39 C                |     2.15409  |     1.13989
   88 H                |  40 N                |     2.04649  |     1.08296
   89 H                |  41 C                |     2.15446  |     1.14009
   90 H                |  44 C                |     2.15381  |     1.13975
   91 H                |  44 C                |     2.15437  |     1.14004
   92 H                |  45 C                |     2.15471  |     1.14022
   93 H                |  46 C                |     2.15467  |     1.14020
   94 H                |  46 C                |     2.15503  |     1.14039
   95 H                |  46 C                |     2.15561  |     1.14070
   96 H                |  47 C                |     2.15503  |     1.14039
   97 H                |  47 C                |     2.15480  |     1.14027
   98 H                |  47 C                |     2.15505  |     1.14040
   99 H                |  48 N                |     2.04482  |     1.08207
  100 H                |  49 C                |     2.15396  |     1.13983
  101 H                |  52 C                |     2.15517  |     1.14047
  102 H                |  52 C                |     2.15383  |     1.13976
  104 H                |   1 N                |     1.92751  |     1.02000
  105 H                |  32 N                |     1.85963  |     0.98408
  106 H                |  50 C                |     1.95076  |     1.03230
 ------------------------------------------------------------------------------
                         number of included internuclear distances:        103
 ==============================================================================



 ==============================================================================
                                 internuclear angles
 ------------------------------------------------------------------------------
        center 1       |       center 2       |       center 3       |  degrees
 ------------------------------------------------------------------------------
    2 C                |   1 N                |  54 H                |   119.71
    2 C                |   1 N                | 104 H                |   106.85
   54 H                |   1 N                | 104 H                |   106.84
    1 N                |   2 C                |   3 C                |   109.98
    1 N                |   2 C                |   5 C                |   107.28
    1 N                |   2 C                |  55 H                |   111.15
    3 C                |   2 C                |   5 C                |   111.03
    3 C                |   2 C                |  55 H                |   107.35
    5 C                |   2 C                |  55 H                |   110.07
    2 C                |   3 C                |   4 O                |   119.13
    2 C                |   3 C                |  10 N                |   119.71
    4 O                |   3 C                |  10 N                |   121.16
    2 C                |   5 C                |   6 C                |   118.22
    2 C                |   5 C                |  56 H                |   107.24
    2 C                |   5 C                |  57 H                |   104.33
    6 C                |   5 C                |  56 H                |   107.25
    6 C                |   5 C                |  57 H                |   104.34
   56 H                |   5 C                |  57 H                |   115.91
    5 C                |   6 C                |   7 C                |   111.04
    5 C                |   6 C                |  58 H                |   109.08
    5 C                |   6 C                |  59 H                |   108.57
    7 C                |   6 C                |  58 H                |   109.10
    7 C                |   6 C                |  59 H                |   108.57
   58 H                |   6 C                |  59 H                |   110.48
    6 C                |   7 C                |   8 O                |   125.99
    6 C                |   7 C                |   9 O                |   107.55
    8 O                |   7 C                |   9 O                |   126.46
    7 C                |   9 O                |  60 H                |   120.00
    3 C                |  10 N                |  11 C                |   126.20
    3 C                |  10 N                |  61 H                |   116.92
   11 C                |  10 N                |  61 H                |   116.88
   10 N                |  11 C                |  12 C                |   120.74
   10 N                |  11 C                |  14 C                |   108.17
   10 N                |  11 C                |  62 H                |   102.41
   12 C                |  11 C                |  14 C                |   109.78
   12 C                |  11 C                |  62 H                |   100.52
   14 C                |  11 C                |  62 H                |   115.17
   11 C                |  12 C                |  13 O                |   118.50
   11 C                |  12 C                |  18 N                |   117.84
   13 O                |  12 C                |  18 N                |   123.35
   11 C                |  14 C                |  15 C                |   112.00
   11 C                |  14 C                |  63 H                |   108.81
   11 C                |  14 C                |  64 H                |   108.00
   15 C                |  14 C                |  63 H                |   108.85
   15 C                |  14 C                |  64 H                |   107.99
   63 H                |  14 C                |  64 H                |   111.21
   14 C                |  15 C                |  16 O                |   118.98
   14 C                |  15 C                |  17 O                |   120.82
   16 O                |  15 C                |  17 O                |   120.18
   15 C                |  16 O                |  65 H                |   120.01
   12 C                |  18 N                |  19 C                |   124.43
   12 C                |  18 N                |  66 H                |   117.80
   19 C                |  18 N                |  66 H                |   117.77
   18 N                |  19 C                |  20 C                |   116.07
   18 N                |  19 C                |  67 H                |   107.78
   18 N                |  19 C                |  68 H                |   105.58
   20 C                |  19 C                |  67 H                |   107.81
   20 C                |  19 C                |  68 H                |   105.61
   67 H                |  19 C                |  68 H                |   114.21
   19 C                |  20 C                |  21 O                |   120.82
   19 C                |  20 C                |  22 N                |   119.21
   21 O                |  20 C                |  22 N                |   119.95
   20 C                |  22 N                |  23 C                |   122.31
   20 C                |  22 N                |  69 H                |   118.84
   23 C                |  22 N                |  69 H                |   118.85
   22 N                |  23 C                |  24 C                |   108.03
   22 N                |  23 C                |  26 C                |   112.00
   22 N                |  23 C                |  70 H                |   108.54
   24 C                |  23 C                |  26 C                |   108.80
   24 C                |  23 C                |  70 H                |   111.74
   26 C                |  23 C                |  70 H                |   107.78
   23 C                |  24 C                |  25 O                |   120.61
   23 C                |  24 C                |  33 N                |   116.58
   25 O                |  24 C                |  33 N                |   122.64
   23 C                |  26 C                |  27 C                |   114.14
   23 C                |  26 C                |  71 H                |   108.30
   23 C                |  26 C                |  72 H                |   106.74
   27 C                |  26 C                |  71 H                |   108.29
   27 C                |  26 C                |  72 H                |   106.74
   71 H                |  26 C                |  72 H                |   112.74
   26 C                |  27 C                |  28 C                |   105.51
   26 C                |  27 C                |  73 H                |   110.47
   26 C                |  27 C                |  74 H                |   111.78
   28 C                |  27 C                |  73 H                |   110.44
   28 C                |  27 C                |  74 H                |   111.80
   73 H                |  27 C                |  74 H                |   106.91
   27 C                |  28 C                |  29 N                |   104.84
   27 C                |  28 C                |  75 H                |   110.60
   27 C                |  28 C                |  76 H                |   112.15
   29 N                |  28 C                |  75 H                |   110.64
   29 N                |  28 C                |  76 H                |   112.18
   75 H                |  28 C                |  76 H                |   106.52
   28 C                |  29 N                |  30 C                |   135.97
   28 C                |  29 N                |  77 H                |   112.05
   30 C                |  29 N                |  77 H                |   111.99
   29 N                |  30 C                |  31 N                |   125.77
   29 N                |  30 C                |  32 N                |   117.68
   31 N                |  30 C                |  32 N                |   116.47
   30 C                |  31 N                |  78 H                |   119.99
   30 C                |  31 N                |  79 H                |   120.00
   78 H                |  31 N                |  79 H                |   120.01
   30 C                |  32 N                |  80 H                |   120.00
   30 C                |  32 N                | 105 H                |   120.01
   80 H                |  32 N                | 105 H                |   119.99
   24 C                |  33 N                |  34 C                |   124.08
   24 C                |  33 N                |  81 H                |   117.97
   34 C                |  33 N                |  81 H                |   117.94
   33 N                |  34 C                |  35 C                |   106.74
   33 N                |  34 C                |  37 C                |   111.43
   33 N                |  34 C                |  82 H                |   109.97
   35 C                |  34 C                |  37 C                |   109.42
   35 C                |  34 C                |  82 H                |   112.01
   37 C                |  34 C                |  82 H                |   107.32
   34 C                |  35 C                |  36 O                |   120.35
   34 C                |  35 C                |  40 N                |   115.51
   36 O                |  35 C                |  40 N                |   124.13
   34 C                |  37 C                |  38 O                |   102.19
   34 C                |  37 C                |  39 C                |   116.95
   34 C                |  37 C                |  83 H                |   109.53
   38 O                |  37 C                |  39 C                |   109.33
   38 O                |  37 C                |  83 H                |   117.09
   39 C                |  37 C                |  83 H                |   102.40
   37 C                |  39 C                |  85 H                |   109.51
   37 C                |  39 C                |  86 H                |   109.47
   37 C                |  39 C                |  87 H                |   109.47
   85 H                |  39 C                |  86 H                |   109.44
   85 H                |  39 C                |  87 H                |   109.45
   86 H                |  39 C                |  87 H                |   109.49
   35 C                |  40 N                |  41 C                |   122.40
   35 C                |  40 N                |  88 H                |   118.80
   41 C                |  40 N                |  88 H                |   118.80
   40 N                |  41 C                |  42 C                |   108.21
   40 N                |  41 C                |  44 C                |   108.15
   40 N                |  41 C                |  89 H                |   112.42
   42 C                |  41 C                |  44 C                |   113.01
   42 C                |  41 C                |  89 H                |   107.53
   44 C                |  41 C                |  89 H                |   107.59
   41 C                |  42 C                |  43 O                |   118.47
   41 C                |  42 C                |  48 N                |   117.23
   43 O                |  42 C                |  48 N                |   124.03
   41 C                |  44 C                |  45 C                |   118.88
   41 C                |  44 C                |  90 H                |   107.07
   41 C                |  44 C                |  91 H                |   103.97
   45 C                |  44 C                |  90 H                |   107.06
   45 C                |  44 C                |  91 H                |   103.92
   90 H                |  44 C                |  91 H                |   116.45
   44 C                |  45 C                |  46 C                |   110.64
   44 C                |  45 C                |  47 C                |   110.45
   44 C                |  45 C                |  92 H                |   106.66
   46 C                |  45 C                |  47 C                |   104.97
   46 C                |  45 C                |  92 H                |   112.01
   47 C                |  45 C                |  92 H                |   112.19
   45 C                |  46 C                |  93 H                |   109.50
   45 C                |  46 C                |  94 H                |   109.49
   45 C                |  46 C                |  95 H                |   109.45
   93 H                |  46 C                |  94 H                |   109.47
   93 H                |  46 C                |  95 H                |   109.44
   94 H                |  46 C                |  95 H                |   109.48
   45 C                |  47 C                |  96 H                |   109.49
   45 C                |  47 C                |  97 H                |   109.44
   45 C                |  47 C                |  98 H                |   109.46
   96 H                |  47 C                |  97 H                |   109.48
   96 H                |  47 C                |  98 H                |   109.46
   97 H                |  47 C                |  98 H                |   109.49
   42 C                |  48 N                |  49 C                |   117.29
   42 C                |  48 N                |  99 H                |   121.37
   49 C                |  48 N                |  99 H                |   121.34
   48 N                |  49 C                |  50 C                |   112.18
   48 N                |  49 C                |  52 C                |   111.41
   48 N                |  49 C                | 100 H                |   106.45
   50 C                |  49 C                |  52 C                |   110.15
   50 C                |  49 C                | 100 H                |   107.81
   52 C                |  49 C                | 100 H                |   108.65
   49 C                |  50 C                |  51 O                |   120.31
   49 C                |  50 C                | 106 H                |   119.84
   51 O                |  50 C                | 106 H                |   119.85
   49 C                |  52 C                |  53 O                |   110.78
   49 C                |  52 C                | 101 H                |   109.16
   49 C                |  52 C                | 102 H                |   108.69
   53 O                |  52 C                | 101 H                |   109.14
   53 O                |  52 C                | 102 H                |   108.72
  101 H                |  52 C                | 102 H                |   110.35
 ------------------------------------------------------------------------------
                            number of included internuclear angles:        182
 ==============================================================================



  library name resolved from: environment
  NWCHEM_NWPW_LIBRARY set to: <
 /sw/xk6/nwchem/6.6/sles11.3_pgi15.7.0/src/nwpw/libraryps/>
  library name resolved from: environment
  NWCHEM_NWPW_LIBRARY set to: <
 /sw/xk6/nwchem/6.6/sles11.3_pgi15.7.0/src/nwpw/libraryps/>
  library name resolved from: environment
  NWCHEM_NWPW_LIBRARY set to: <
 /sw/xk6/nwchem/6.6/sles11.3_pgi15.7.0/src/nwpw/libraryps/>
  library name resolved from: environment
  NWCHEM_NWPW_LIBRARY set to: <
 /sw/xk6/nwchem/6.6/sles11.3_pgi15.7.0/src/nwpw/libraryps/>
          ****************************************************
          *                                                  *
          *               NWPW PSPW Calculation              *
          *                                                  *
          * [ (Grassmann/Stiefel manifold implementation)  ] *
          *                                                  *
          *      [ NorthWest Chemistry implementation ]      *
          *                                                  *
          *            version #5.10   06/12/02              *
          *                                                  *
          *    This code was developed by Eric J. Bylaska,   *
          *    and was based upon algorithms and code        *
          *    developed by the group of Prof. John H. Weare *
          *                                                  *
          ****************************************************
     >>>  JOB STARTED       AT Thu Dec 28 23:15:30 2017  <<<
          ================ input data ========================
  library name resolved from: environment
  NWCHEM_NWPW_LIBRARY set to: <
 /sw/xk6/nwchem/6.6/sles11.3_pgi15.7.0/src/nwpw/libraryps/>
 Generating 1d pseudopotential for N   
 
 Generated formatted_filename: 
 /lustre/atlas/scratch/hjjvd/csc249/.3801549/N.vpp
  library name resolved from: environment
  NWCHEM_NWPW_LIBRARY set to: <
 /sw/xk6/nwchem/6.6/sles11.3_pgi15.7.0/src/nwpw/libraryps/>
 Generating 1d pseudopotential for C   
 
 Generated formatted_filename: 
 /lustre/atlas/scratch/hjjvd/csc249/.3801549/C.vpp
  library name resolved from: environment
  NWCHEM_NWPW_LIBRARY set to: <
 /sw/xk6/nwchem/6.6/sles11.3_pgi15.7.0/src/nwpw/libraryps/>
 Generating 1d pseudopotential for O   
 
 Generated formatted_filename: 
 /lustre/atlas/scratch/hjjvd/csc249/.3801549/O.vpp
  library name resolved from: environment
  NWCHEM_NWPW_LIBRARY set to: <
 /sw/xk6/nwchem/6.6/sles11.3_pgi15.7.0/src/nwpw/libraryps/>
 Generating 1d pseudopotential for H   
 
 Generated formatted_filename: 
 /lustre/atlas/scratch/hjjvd/csc249/.3801549/H.vpp
 random planewave guess, initial psi:
 nwc_pweg_dat.movecs                               
 -   spin, nalpha, nbeta:                        1                      150 
                        0

 input psi filename:/lustre/atlas/scratch/hjjvd/csc249/.3801549/nwc_pweg_dat.movecs
 Warning - Gram-Schmidt being performed on psi:    150.0000000000000      
    95.95584188441087         150.0000000000000         54.04415811558913     

 number of processors used:       512
 processor grid           :  32 x  16
 parallel mapping         :2d hilbert
 parallel mapping         :  balanced
 number of threads        :         1
 parallel io              :       off

 options:
      boundary conditions  = aperiodic   (version4)
      electron spin        = restricted
      exchange-correlation = PBE96 (White and Bird) parameterization

 elements involved in the cluster:
      1: N   valence charge:  5.0000  lmax=  2
             comment    : Hamann pseudopotential
             pseudpotential type            :   0
             highest angular component      :   2
             local potential used           :   2
             number of non-local projections:   4
             aperiodic cutoff radius        :  1.000
             cutoff =   0.700   0.700   0.700
 
      2: C   valence charge:  4.0000  lmax=  2
             comment    : Parameterized (J.Phys.Chem., vol 100, page 6966) Hamman psp
             pseudpotential type            :   0
             highest angular component      :   2
             local potential used           :   2
             number of non-local projections:   4
             aperiodic cutoff radius        :  1.000
             cutoff =   0.800   0.850   0.850
 
      3: O   valence charge:  6.0000  lmax=  2
             comment    : Parameterized (Chem.Phys.Lett., vol 322, page 447) Hamman psp
             pseudpotential type            :   0
             highest angular component      :   2
             local potential used           :   2
             number of non-local projections:   4
             aperiodic cutoff radius        :  1.000
             cutoff =   0.700   0.700   0.700
 
      4: H   valence charge:  1.0000  lmax=  1
             comment    : Parameterized (Chem.Phys.Lett., vol 322, page 447) Hamman psp
             pseudpotential type            :   0
             highest angular component      :   1
             local potential used           :   1
             number of non-local projections:   1
             aperiodic cutoff radius        :  1.000
             cutoff =   0.800   0.800
 

 total charge:   1.000

 atomic composition:
     N   :   10     C   :   30     O   :   13     H   :   53

 number of electrons: spin up=   150 (  10 per task)  down=   150 (  10 per task) (Fourier space)
 number of orbitals : spin up=   150 (  10 per task)  down=   150 (  10 per task) (Fourier space)

 supercell:
      cell_name:  cell_default                                      
      lattice:    a1=<  26.000   0.000   0.000 >
                  a2=<   0.000  23.000   0.000 >
                  a3=<   0.000   0.000  27.000 >
      reciprocal: b1=<   0.242   0.000  -0.000 >
                  b2=<  -0.000   0.273  -0.000 >
                  b3=<   0.000   0.000   0.233 >
      lattice:    a=      26.000 b=     23.000 c=      27.000
                  alpha=  90.000 beta=  90.000 gamma=  90.000
                  omega=     16146.0

      density cutoff= 25.000  fft= 60x 54x 64(    48175 waves     1505 per task)
      wavefnc cutoff= 12.500  fft= 60x 54x 64(    17044 waves      532 per task)

 technical parameters:
      time step=      5.80     fictitious mass=  400000.0
      tolerance=0.100E-06 (energy)   0.100E-06 (density)
      maximum iterations =      1000 (   10 inner    100 outer )





== Energy Calculation ==


          ============ Grassmann lmbfgs iteration ============
     >>>  ITERATION STARTED AT Thu Dec 28 23:15:47 2017  <<<
    iter.           Energy         DeltaE       DeltaRho 
    ------------------------------------------------------
     -  15 steepest descent iterations performed
      10   -0.2576871153E+03   -0.36727E+01    0.32757E+02
     -  10 steepest descent iterations performed
      20   -0.2684941840E+03   -0.27400E+00    0.11299E+00
     -  10 steepest descent iterations performed
      30   -0.2697530936E+03   -0.49600E-01    0.12401E-01
     -  10 steepest descent iterations performed
      40   -0.2700149914E+03   -0.13911E-01    0.19953E-02
     -  10 steepest descent iterations performed
      50   -0.2700999486E+03   -0.54377E-02    0.70170E-03
      60   -0.2701544068E+03   -0.22913E-02    0.95703E-03
      70   -0.2701700487E+03   -0.12819E-02    0.35306E-03
      80   -0.2701788680E+03   -0.74028E-03    0.22265E-03
      90   -0.2701852560E+03   -0.50068E-03    0.19129E-03
     100   -0.2701895936E+03   -0.31988E-03    0.17021E-03
     110   -0.2701914297E+03   -0.13172E-03    0.55578E-04
     120   -0.2701923207E+03   -0.60552E-04    0.21670E-04
     130   -0.2701927917E+03   -0.36460E-04    0.12233E-04
     140   -0.2701930363E+03   -0.16537E-04    0.61571E-05
     150   -0.2701931516E+03   -0.80882E-05    0.29701E-05
     160   -0.2701932080E+03   -0.42596E-05    0.12768E-05
     170   -0.2701932401E+03   -0.27258E-05    0.80519E-06
     180   -0.2701932630E+03   -0.19966E-05    0.74242E-06
     190   -0.2701932798E+03   -0.14291E-05    0.65600E-06
     200   -0.2701932908E+03   -0.87880E-06    0.46923E-06
     210   -0.2701932972E+03   -0.45272E-06    0.25012E-06
     220   -0.2701933002E+03   -0.21650E-06    0.93032E-07
     230   -0.2701933017E+03   -0.10094E-06    0.39233E-07
     240   -0.2701933018E+03   -0.93041E-07    0.22911E-09
  *** tolerance ok. iteration terminated
     >>>  ITERATION ENDED   AT Thu Dec 28 23:19:52 2017  <<<


==  Summary Of Results  ==
 
 number of electrons: spin up=  150.00000  down=  150.00000 (real space)

 total     energy    :  -0.2701933018E+03 (   -0.25490E+01/ion)
 total orbital energy:  -0.1256863363E+02 (   -0.83791E-01/electron)
 hartree   energy    :   0.4530415221E+04 (    0.30203E+02/electron)
 exc-corr  energy    :  -0.1285349190E+03 (   -0.85690E+00/electron)
 ion-ion   energy    :   0.4234221436E+04 (    0.39945E+02/ion)

 kinetic (planewave) :   0.2817055969E+03 (    0.18780E+01/electron)
 V_local (planewave) :  -0.9185956925E+04 (   -0.61240E+02/electron)
 V_nl    (planewave) :  -0.2043711974E+01 (   -0.13625E-01/electron)
 V_Coul  (planewave) :   0.9060830442E+04 (    0.60406E+02/electron)
 V_xc.   (planewave) :  -0.1671040363E+03 (   -0.11140E+01/electron)
 Virial Coefficient  :  -0.1044616201E+01

 orbital energies:
     0.3477779E+00 (   9.464eV)
     0.3420489E+00 (   9.308eV)
     0.3410580E+00 (   9.281eV)
     0.3367418E+00 (   9.163eV)
     0.3337032E+00 (   9.081eV)
     0.3324303E+00 (   9.046eV)
     0.3217185E+00 (   8.754eV)
     0.3202256E+00 (   8.714eV)
     0.3163318E+00 (   8.608eV)
     0.3122895E+00 (   8.498eV)
     0.3054277E+00 (   8.311eV)
     0.2984068E+00 (   8.120eV)
     0.2910734E+00 (   7.921eV)
     0.2847334E+00 (   7.748eV)
     0.2824933E+00 (   7.687eV)
     0.2765715E+00 (   7.526eV)
     0.2725718E+00 (   7.417eV)
     0.2696801E+00 (   7.338eV)
     0.2669336E+00 (   7.264eV)
     0.2627346E+00 (   7.149eV)
     0.2549900E+00 (   6.939eV)
     0.2532683E+00 (   6.892eV)
     0.2512562E+00 (   6.837eV)
     0.2505720E+00 (   6.818eV)
     0.2467397E+00 (   6.714eV)
     0.2412096E+00 (   6.564eV)
     0.2409942E+00 (   6.558eV)
     0.2350824E+00 (   6.397eV)
     0.2269181E+00 (   6.175eV)
     0.2225862E+00 (   6.057eV)
     0.2155282E+00 (   5.865eV)
     0.2095207E+00 (   5.701eV)
     0.2080366E+00 (   5.661eV)
     0.2044508E+00 (   5.563eV)
     0.1929779E+00 (   5.251eV)
     0.1914689E+00 (   5.210eV)
     0.1841863E+00 (   5.012eV)
     0.1746260E+00 (   4.752eV)
     0.1667559E+00 (   4.538eV)
     0.1627657E+00 (   4.429eV)
     0.1596279E+00 (   4.344eV)
     0.1548710E+00 (   4.214eV)
     0.1493204E+00 (   4.063eV)
     0.1391978E+00 (   3.788eV)
     0.1357948E+00 (   3.695eV)
     0.1329526E+00 (   3.618eV)
     0.1306551E+00 (   3.555eV)
     0.1266492E+00 (   3.446eV)
     0.1210670E+00 (   3.294eV)
     0.1208143E+00 (   3.288eV)
     0.1170246E+00 (   3.184eV)
     0.1165155E+00 (   3.171eV)
     0.1095928E+00 (   2.982eV)
     0.1043998E+00 (   2.841eV)
     0.1005438E+00 (   2.736eV)
     0.9671257E-01 (   2.632eV)
     0.9475171E-01 (   2.578eV)
     0.9263601E-01 (   2.521eV)
     0.8766373E-01 (   2.385eV)
     0.7874634E-01 (   2.143eV)
     0.7815537E-01 (   2.127eV)
     0.7425510E-01 (   2.021eV)
     0.7329725E-01 (   1.995eV)
     0.7112571E-01 (   1.935eV)
     0.6916571E-01 (   1.882eV)
     0.6304533E-01 (   1.716eV)
     0.6211870E-01 (   1.690eV)
     0.5856005E-01 (   1.594eV)
     0.5413979E-01 (   1.473eV)
     0.4844556E-01 (   1.318eV)
     0.4553981E-01 (   1.239eV)
     0.4333598E-01 (   1.179eV)
     0.4175964E-01 (   1.136eV)
     0.3903224E-01 (   1.062eV)
     0.3416548E-01 (   0.930eV)
     0.2634056E-01 (   0.717eV)
     0.2423643E-01 (   0.660eV)
     0.2153419E-01 (   0.586eV)
     0.1958641E-01 (   0.533eV)
     0.1669952E-01 (   0.454eV)
     0.1389112E-01 (   0.378eV)
     0.6719045E-02 (   0.183eV)
     0.5308680E-02 (   0.144eV)
     0.1115210E-02 (   0.030eV)
    -0.7693715E-02 (  -0.209eV)
    -0.1538039E-01 (  -0.419eV)
    -0.1904526E-01 (  -0.518eV)
    -0.2274830E-01 (  -0.619eV)
    -0.2403882E-01 (  -0.654eV)
    -0.3321354E-01 (  -0.904eV)
    -0.4291349E-01 (  -1.168eV)
    -0.4750517E-01 (  -1.293eV)
    -0.5153989E-01 (  -1.402eV)
    -0.5534246E-01 (  -1.506eV)
    -0.6259727E-01 (  -1.703eV)
    -0.7246357E-01 (  -1.972eV)
    -0.7748288E-01 (  -2.108eV)
    -0.8412648E-01 (  -2.289eV)
    -0.9254420E-01 (  -2.518eV)
    -0.9882983E-01 (  -2.689eV)
    -0.1056751E+00 (  -2.876eV)
    -0.1070151E+00 (  -2.912eV)
    -0.1118285E+00 (  -3.043eV)
    -0.1173074E+00 (  -3.192eV)
    -0.1255007E+00 (  -3.415eV)
    -0.1345732E+00 (  -3.662eV)
    -0.1478037E+00 (  -4.022eV)
    -0.1541747E+00 (  -4.195eV)
    -0.1779207E+00 (  -4.842eV)
    -0.1801231E+00 (  -4.901eV)
    -0.1874399E+00 (  -5.101eV)
    -0.1992250E+00 (  -5.421eV)
    -0.2063045E+00 (  -5.614eV)
    -0.2129148E+00 (  -5.794eV)
    -0.2156387E+00 (  -5.868eV)
    -0.2368176E+00 (  -6.444eV)
    -0.2498922E+00 (  -6.800eV)
    -0.2598686E+00 (  -7.071eV)
    -0.2776630E+00 (  -7.556eV)
    -0.2815242E+00 (  -7.661eV)
    -0.2918732E+00 (  -7.942eV)
    -0.3033003E+00 (  -8.253eV)
    -0.3073602E+00 (  -8.364eV)
    -0.3478663E+00 (  -9.466eV)
    -0.3562760E+00 (  -9.695eV)
    -0.3713870E+00 ( -10.106eV)
    -0.3989740E+00 ( -10.857eV)
    -0.4005243E+00 ( -10.899eV)
    -0.4188780E+00 ( -11.398eV)
    -0.4226158E+00 ( -11.500eV)
    -0.4311661E+00 ( -11.733eV)
    -0.4331140E+00 ( -11.786eV)
    -0.4449550E+00 ( -12.108eV)
    -0.4704402E+00 ( -12.801eV)
    -0.4783135E+00 ( -13.016eV)
    -0.5074418E+00 ( -13.808eV)
    -0.5397227E+00 ( -14.687eV)
    -0.5404826E+00 ( -14.707eV)
    -0.5447945E+00 ( -14.825eV)
    -0.5538467E+00 ( -15.071eV)
    -0.5631148E+00 ( -15.323eV)
    -0.5758899E+00 ( -15.671eV)
    -0.5768517E+00 ( -15.697eV)
    -0.6101016E+00 ( -16.602eV)
    -0.6515096E+00 ( -17.729eV)
    -0.6960868E+00 ( -18.942eV)
    -0.7273102E+00 ( -19.791eV)
    -0.8543809E+00 ( -23.249eV)
    -0.8653615E+00 ( -23.548eV)
    -0.9136971E+00 ( -24.863eV)

 Total PSPW energy     :  -0.2701933018E+03


=== Spin Contamination ===
 
 <Sexact^2> =     0.000000000000000     
 <S^2>      =     0.000000000000000     
 


== Center of Charge ==

spin up     (   -0.0775,    0.9650,    0.2121 )
spin down   (   -0.0775,    0.9650,    0.2121 )
     total  (   -0.0775,    0.9650,    0.2121 )
ionic       (   -0.0110,   -0.0164,    0.0022 )


== Molecular Dipole wrt Center of Mass ==

mu   =  (   19.9288, -294.4518,  -62.9565 ) au
|mu| =   301.7657 au,     766.9676 Debye

 output psi filename:/lustre/atlas/scratch/hjjvd/csc249/.3801549/nwc_pweg_dat.movecs


== Timing ==

cputime in seconds
  prologue    :   0.171399E+02
  main loop   :   0.246057E+03
  epilogue    :   0.770424E+01
  total       :   0.270901E+03
  cputime/step:   0.430169E+00       (     572 evalulations,     231 linesearches)


Time spent doing                        total          step       percent
  total time                 :   0.271936E+03  0.475412E+00       100.0 %
  i/o time                   :   0.209267E+02  0.365851E-01         7.7 %
  FFTs                       :   0.136268E+02  0.238230E-01         5.0 %
  dot products               :   0.251996E+02  0.440552E-01         9.3 %
  geodesic                   :   0.176539E+03  0.308635E+00        64.9 %
  ffm_dgemm                  :   0.392582E+02  0.686333E-01        14.4 %
  fmf_dgemm                  :   0.109155E+03  0.190830E+00        40.1 %
  mmm_dgemm                  :   0.483122E+01  0.844619E-02         1.8 %
  m_diagonalize              :   0.504779E+01  0.882481E-02         1.9 %
  exchange correlation       :   0.103333E+02  0.180652E-01         3.8 %
  local pseudopotentials     :   0.141780E-01  0.247868E-04         0.0 %
  non-local pseudopotentials :   0.558223E+01  0.975914E-02         2.1 %
  structure factors          :   0.486071E+00  0.849774E-03         0.2 %
  phase factors              :   0.669240E-03  0.117000E-05         0.0 %
  masking and packing        :   0.182659E+01  0.319334E-02         0.7 %
  queue fft                  :   0.880700E+01  0.153968E-01         3.2 %
  queue fft (serial)         :   0.274324E+01  0.479587E-02         1.0 %
  queue fft (message passing):   0.593823E+01  0.103815E-01         2.2 %
  non-local psp FFM          :   0.297469E+01  0.520051E-02         1.1 %
  non-local psp FMF          :   0.196495E+01  0.343522E-02         0.7 %
  non-local psp FFM A        :   0.349998E+00  0.611884E-03         0.1 %
  non-local psp FFM B        :   0.204953E+01  0.358310E-02         0.8 %
 
     >>>  JOB COMPLETED     AT Thu Dec 28 23:20:01 2017  <<<
          ****************************************************
          *                                                  *
          *               NWPW PSPW Calculation              *
          *                                                  *
          * [ (Grassmann/Stiefel manifold implementation)  ] *
          *                                                  *
          *      [ NorthWest Chemistry implementation ]      *
          *                                                  *
          *            version #5.10   06/12/02              *
          *                                                  *
          *    This code was developed by Eric J. Bylaska,   *
          *    and was based upon algorithms and code        *
          *    developed by the group of Prof. John H. Weare *
          *                                                  *
          ****************************************************
     >>>  JOB STARTED       AT Thu Dec 28 23:20:02 2017  <<<
          ================ input data ========================
 pseudopotential is not correctly formatted:
 N.vpp                                             
 
 Generated formatted_filename: 
 /lustre/atlas/scratch/hjjvd/csc249/.3801549/N.vpp
 pseudopotential is not correctly formatted:
 C.vpp                                             
 
 Generated formatted_filename: 
 /lustre/atlas/scratch/hjjvd/csc249/.3801549/C.vpp
 pseudopotential is not correctly formatted:
 O.vpp                                             
 
 Generated formatted_filename: 
 /lustre/atlas/scratch/hjjvd/csc249/.3801549/O.vpp
 pseudopotential is not correctly formatted:
 H.vpp                                             
 
 Generated formatted_filename: 
 /lustre/atlas/scratch/hjjvd/csc249/.3801549/H.vpp
 Error reading psi - bad grid
 nfft :                       60                       54 
                       64
 ngrid:                       84                       80 
                       90
 Error reading psi - bad grid
 nfft :                       60                       54 
                       64
 ngrid:                       84                       80 
                       90
 Error reading psi - bad grid
 
 Grid is being converted:
 ------------------------
 
 To turn off automatic grid conversion:
 
 set nwpw:psi_nogrid .false.
 
 old_filename: nwc_pweg_dat.movecs                               
 new_filename: nwc_pweg_dat.movecs                               
 converting  :  60x 54x 64 -->  84x 80x 90
converting .... psi:    1 spin: 1
converting .... psi:    2 spin: 1
converting .... psi:    3 spin: 1
converting .... psi:    4 spin: 1
converting .... psi:    5 spin: 1
converting .... psi:    6 spin: 1
converting .... psi:    7 spin: 1
converting .... psi:    8 spin: 1
converting .... psi:    9 spin: 1
converting .... psi:   10 spin: 1
converting .... psi:   11 spin: 1
converting .... psi:   12 spin: 1
converting .... psi:   13 spin: 1
converting .... psi:   14 spin: 1
converting .... psi:   15 spin: 1
converting .... psi:   16 spin: 1
converting .... psi:   17 spin: 1
converting .... psi:   18 spin: 1
converting .... psi:   19 spin: 1
converting .... psi:   20 spin: 1
converting .... psi:   21 spin: 1
converting .... psi:   22 spin: 1
converting .... psi:   23 spin: 1
converting .... psi:   24 spin: 1
converting .... psi:   25 spin: 1
converting .... psi:   26 spin: 1
converting .... psi:   27 spin: 1
converting .... psi:   28 spin: 1
converting .... psi:   29 spin: 1
converting .... psi:   30 spin: 1
converting .... psi:   31 spin: 1
converting .... psi:   32 spin: 1
converting .... psi:   33 spin: 1
converting .... psi:   34 spin: 1
converting .... psi:   35 spin: 1
converting .... psi:   36 spin: 1
converting .... psi:   37 spin: 1
converting .... psi:   38 spin: 1
converting .... psi:   39 spin: 1
converting .... psi:   40 spin: 1
converting .... psi:   41 spin: 1
converting .... psi:   42 spin: 1
converting .... psi:   43 spin: 1
converting .... psi:   44 spin: 1
converting .... psi:   45 spin: 1
converting .... psi:   46 spin: 1
converting .... psi:   47 spin: 1
converting .... psi:   48 spin: 1
converting .... psi:   49 spin: 1
converting .... psi:   50 spin: 1
converting .... psi:   51 spin: 1
converting .... psi:   52 spin: 1
converting .... psi:   53 spin: 1
converting .... psi:   54 spin: 1
converting .... psi:   55 spin: 1
converting .... psi:   56 spin: 1
converting .... psi:   57 spin: 1
converting .... psi:   58 spin: 1
converting .... psi:   59 spin: 1
converting .... psi:   60 spin: 1
converting .... psi:   61 spin: 1
converting .... psi:   62 spin: 1
converting .... psi:   63 spin: 1
converting .... psi:   64 spin: 1
converting .... psi:   65 spin: 1
converting .... psi:   66 spin: 1
converting .... psi:   67 spin: 1
converting .... psi:   68 spin: 1
converting .... psi:   69 spin: 1
converting .... psi:   70 spin: 1
converting .... psi:   71 spin: 1
converting .... psi:   72 spin: 1
converting .... psi:   73 spin: 1
converting .... psi:   74 spin: 1
converting .... psi:   75 spin: 1
converting .... psi:   76 spin: 1
converting .... psi:   77 spin: 1
converting .... psi:   78 spin: 1
converting .... psi:   79 spin: 1
converting .... psi:   80 spin: 1
converting .... psi:   81 spin: 1
converting .... psi:   82 spin: 1
converting .... psi:   83 spin: 1
converting .... psi:   84 spin: 1
converting .... psi:   85 spin: 1
converting .... psi:   86 spin: 1
converting .... psi:   87 spin: 1
converting .... psi:   88 spin: 1
converting .... psi:   89 spin: 1
converting .... psi:   90 spin: 1
converting .... psi:   91 spin: 1
converting .... psi:   92 spin: 1
converting .... psi:   93 spin: 1
converting .... psi:   94 spin: 1
converting .... psi:   95 spin: 1
converting .... psi:   96 spin: 1
converting .... psi:   97 spin: 1
converting .... psi:   98 spin: 1
converting .... psi:   99 spin: 1
converting .... psi:  100 spin: 1
converting .... psi:  101 spin: 1
converting .... psi:  102 spin: 1
converting .... psi:  103 spin: 1
converting .... psi:  104 spin: 1
converting .... psi:  105 spin: 1
converting .... psi:  106 spin: 1
converting .... psi:  107 spin: 1
converting .... psi:  108 spin: 1
converting .... psi:  109 spin: 1
converting .... psi:  110 spin: 1
converting .... psi:  111 spin: 1
converting .... psi:  112 spin: 1
converting .... psi:  113 spin: 1
converting .... psi:  114 spin: 1
converting .... psi:  115 spin: 1
converting .... psi:  116 spin: 1
converting .... psi:  117 spin: 1
converting .... psi:  118 spin: 1
converting .... psi:  119 spin: 1
converting .... psi:  120 spin: 1
converting .... psi:  121 spin: 1
converting .... psi:  122 spin: 1
converting .... psi:  123 spin: 1
converting .... psi:  124 spin: 1
converting .... psi:  125 spin: 1
converting .... psi:  126 spin: 1
converting .... psi:  127 spin: 1
converting .... psi:  128 spin: 1
converting .... psi:  129 spin: 1
converting .... psi:  130 spin: 1
converting .... psi:  131 spin: 1
converting .... psi:  132 spin: 1
converting .... psi:  133 spin: 1
converting .... psi:  134 spin: 1
converting .... psi:  135 spin: 1
converting .... psi:  136 spin: 1
converting .... psi:  137 spin: 1
converting .... psi:  138 spin: 1
converting .... psi:  139 spin: 1
converting .... psi:  140 spin: 1
converting .... psi:  141 spin: 1
converting .... psi:  142 spin: 1
converting .... psi:  143 spin: 1
converting .... psi:  144 spin: 1
converting .... psi:  145 spin: 1
converting .... psi:  146 spin: 1
converting .... psi:  147 spin: 1
converting .... psi:  148 spin: 1
converting .... psi:  149 spin: 1
converting .... psi:  150 spin: 1

 input psi filename:/lustre/atlas/scratch/hjjvd/csc249/.3801549/nwc_pweg_dat.movecs

 number of processors used:       512
 processor grid           :  64 x   8
 parallel mapping         :2d hilbert
 parallel mapping         :  balanced
 number of threads        :         1
 parallel io              :       off

 options:
      boundary conditions  = aperiodic   (version4)
      electron spin        = restricted
      exchange-correlation = PBE96 (White and Bird) parameterization

 elements involved in the cluster:
      1: N   valence charge:  5.0000  lmax=  2
             comment    : Hamann pseudopotential
             pseudpotential type            :   0
             highest angular component      :   2
             local potential used           :   2
             number of non-local projections:   4
             aperiodic cutoff radius        :  1.000
             cutoff =   0.700   0.700   0.700
 
      2: C   valence charge:  4.0000  lmax=  2
             comment    : Parameterized (J.Phys.Chem., vol 100, page 6966) Hamman psp
             pseudpotential type            :   0
             highest angular component      :   2
             local potential used           :   2
             number of non-local projections:   4
             aperiodic cutoff radius        :  1.000
             cutoff =   0.800   0.850   0.850
 
      3: O   valence charge:  6.0000  lmax=  2
             comment    : Parameterized (Chem.Phys.Lett., vol 322, page 447) Hamman psp
             pseudpotential type            :   0
             highest angular component      :   2
             local potential used           :   2
             number of non-local projections:   4
             aperiodic cutoff radius        :  1.000
             cutoff =   0.700   0.700   0.700
 
      4: H   valence charge:  1.0000  lmax=  1
             comment    : Parameterized (Chem.Phys.Lett., vol 322, page 447) Hamman psp
             pseudpotential type            :   0
             highest angular component      :   1
             local potential used           :   1
             number of non-local projections:   1
             aperiodic cutoff radius        :  1.000
             cutoff =   0.800   0.800
 

 total charge:   1.000

 atomic composition:
     N   :   10     C   :   30     O   :   13     H   :   53

 number of electrons: spin up=   150 (  19 per task)  down=   150 (  19 per task) (Fourier space)
 number of orbitals : spin up=   150 (  19 per task)  down=   150 (  19 per task) (Fourier space)

 supercell:
      cell_name:  cell_default                                      
      lattice:    a1=<  26.000   0.000   0.000 >
                  a2=<   0.000  23.000   0.000 >
                  a3=<   0.000   0.000  27.000 >
      reciprocal: b1=<   0.242   0.000  -0.000 >
                  b2=<  -0.000   0.273  -0.000 >
                  b3=<   0.000   0.000   0.233 >
      lattice:    a=      26.000 b=     23.000 c=      27.000
                  alpha=  90.000 beta=  90.000 gamma=  90.000
                  omega=     16146.0

      density cutoff= 50.000  fft= 84x 80x 90(   136372 waves     2130 per task)
      wavefnc cutoff= 25.000  fft= 84x 80x 90(    48175 waves      752 per task)

 technical parameters:
      time step=      5.80     fictitious mass=  400000.0
      tolerance=0.100E-06 (energy)   0.100E-06 (density)
      maximum iterations =      1000 (   10 inner    100 outer )





== Energy Calculation ==


          ============ Grassmann lmbfgs iteration ============
     >>>  ITERATION STARTED AT Thu Dec 28 23:21:05 2017  <<<
    iter.           Energy         DeltaE       DeltaRho 
    ------------------------------------------------------
      10   -0.2756694111E+03   -0.33607E-02    0.61614E+00
     -  10 steepest descent iterations performed
      20   -0.2756794876E+03   -0.20716E-03    0.38242E-03
      30   -0.2756814696E+03   -0.11450E-03    0.63026E-04
      40   -0.2756823756E+03   -0.69978E-04    0.26520E-04
      50   -0.2756828486E+03   -0.35551E-04    0.11270E-04
      60   -0.2756830981E+03   -0.19835E-04    0.59848E-05
      70   -0.2756832583E+03   -0.13189E-04    0.42693E-05
      80   -0.2756833636E+03   -0.87011E-05    0.29331E-05
      90   -0.2756834340E+03   -0.65371E-05    0.20677E-05
     100   -0.2756834870E+03   -0.47214E-05    0.16689E-05
     110   -0.2756835214E+03   -0.26725E-05    0.10002E-05
     120   -0.2756835419E+03   -0.15436E-05    0.55597E-06
     130   -0.2756835546E+03   -0.10249E-05    0.29826E-06
     140   -0.2756835624E+03   -0.57998E-06    0.16248E-06
     150   -0.2756835662E+03   -0.26429E-06    0.70129E-07
     160   -0.2756835680E+03   -0.12176E-06    0.28048E-07
     170   -0.2756835683E+03   -0.98629E-07    0.17394E-08
  *** tolerance ok. iteration terminated
     >>>  ITERATION ENDED   AT Thu Dec 28 23:25:02 2017  <<<


==  Summary Of Results  ==
 
 number of electrons: spin up=  150.00000  down=  150.00000 (real space)

 total     energy    :  -0.2756835683E+03 (   -0.26008E+01/ion)
 total orbital energy:  -0.1098317898E+02 (   -0.73221E-01/electron)
 hartree   energy    :   0.4537894291E+04 (    0.30253E+02/electron)
 exc-corr  energy    :  -0.1298410551E+03 (   -0.86561E+00/electron)
 ion-ion   energy    :   0.4234221436E+04 (    0.39945E+02/ion)

 kinetic (planewave) :   0.2997866159E+03 (    0.19986E+01/electron)
 V_local (planewave) :  -0.9205137237E+04 (   -0.61368E+02/electron)
 V_nl    (planewave) :  -0.1260761796E+02 (   -0.84051E-01/electron)
 V_Coul  (planewave) :   0.9075788581E+04 (    0.60505E+02/electron)
 V_xc.   (planewave) :  -0.1688135206E+03 (   -0.11254E+01/electron)
 Virial Coefficient  :  -0.1036636656E+01

 orbital energies:
     0.3467581E+00 (   9.436eV)
     0.3427977E+00 (   9.328eV)
     0.3403199E+00 (   9.261eV)
     0.3349090E+00 (   9.113eV)
     0.3326319E+00 (   9.051eV)
     0.3316445E+00 (   9.025eV)
     0.3204535E+00 (   8.720eV)
     0.3199866E+00 (   8.707eV)
     0.3152278E+00 (   8.578eV)
     0.3111747E+00 (   8.468eV)
     0.3034630E+00 (   8.258eV)
     0.2951259E+00 (   8.031eV)
     0.2871643E+00 (   7.814eV)
     0.2811042E+00 (   7.649eV)
     0.2795945E+00 (   7.608eV)
     0.2751463E+00 (   7.487eV)
     0.2696653E+00 (   7.338eV)
     0.2674472E+00 (   7.278eV)
     0.2640470E+00 (   7.185eV)
     0.2570642E+00 (   6.995eV)
     0.2534612E+00 (   6.897eV)
     0.2515809E+00 (   6.846eV)
     0.2484260E+00 (   6.760eV)
     0.2443053E+00 (   6.648eV)
     0.2428909E+00 (   6.609eV)
     0.2398578E+00 (   6.527eV)
     0.2357564E+00 (   6.415eV)
     0.2300524E+00 (   6.260eV)
     0.2258407E+00 (   6.145eV)
     0.2207306E+00 (   6.006eV)
     0.2164379E+00 (   5.890eV)
     0.2060440E+00 (   5.607eV)
     0.2021512E+00 (   5.501eV)
     0.1954755E+00 (   5.319eV)
     0.1928610E+00 (   5.248eV)
     0.1850182E+00 (   5.035eV)
     0.1764408E+00 (   4.801eV)
     0.1760060E+00 (   4.789eV)
     0.1651342E+00 (   4.494eV)
     0.1618936E+00 (   4.405eV)
     0.1579707E+00 (   4.299eV)
     0.1543920E+00 (   4.201eV)
     0.1472297E+00 (   4.006eV)
     0.1390393E+00 (   3.783eV)
     0.1365485E+00 (   3.716eV)
     0.1327986E+00 (   3.614eV)
     0.1296938E+00 (   3.529eV)
     0.1271463E+00 (   3.460eV)
     0.1224756E+00 (   3.333eV)
     0.1198328E+00 (   3.261eV)
     0.1155026E+00 (   3.143eV)
     0.1153258E+00 (   3.138eV)
     0.1140833E+00 (   3.104eV)
     0.1084152E+00 (   2.950eV)
     0.1028208E+00 (   2.798eV)
     0.9732553E-01 (   2.648eV)
     0.9488853E-01 (   2.582eV)
     0.9311923E-01 (   2.534eV)
     0.9045304E-01 (   2.461eV)
     0.8639664E-01 (   2.351eV)
     0.8456626E-01 (   2.301eV)
     0.7698127E-01 (   2.095eV)
     0.7438344E-01 (   2.024eV)
     0.7232088E-01 (   1.968eV)
     0.6892675E-01 (   1.876eV)
     0.6599679E-01 (   1.796eV)
     0.6107114E-01 (   1.662eV)
     0.5952391E-01 (   1.620eV)
     0.5762586E-01 (   1.568eV)
     0.5185870E-01 (   1.411eV)
     0.5022982E-01 (   1.367eV)
     0.4271189E-01 (   1.162eV)
     0.4257635E-01 (   1.159eV)
     0.3764589E-01 (   1.024eV)
     0.3458870E-01 (   0.941eV)
     0.3121358E-01 (   0.849eV)
     0.2561387E-01 (   0.697eV)
     0.1960544E-01 (   0.533eV)
     0.1882801E-01 (   0.512eV)
     0.1461162E-01 (   0.398eV)
     0.1417971E-01 (   0.386eV)
     0.9838863E-02 (   0.268eV)
     0.3165481E-02 (   0.086eV)
    -0.1557708E-02 (  -0.042eV)
    -0.6297744E-02 (  -0.171eV)
    -0.1320739E-01 (  -0.359eV)
    -0.1682732E-01 (  -0.458eV)
    -0.2030851E-01 (  -0.553eV)
    -0.2263853E-01 (  -0.616eV)
    -0.3096755E-01 (  -0.843eV)
    -0.4012467E-01 (  -1.092eV)
    -0.4349085E-01 (  -1.183eV)
    -0.4835065E-01 (  -1.316eV)
    -0.5640274E-01 (  -1.535eV)
    -0.6366549E-01 (  -1.732eV)
    -0.6735703E-01 (  -1.833eV)
    -0.7096114E-01 (  -1.931eV)
    -0.8096262E-01 (  -2.203eV)
    -0.9091083E-01 (  -2.474eV)
    -0.9912249E-01 (  -2.697eV)
    -0.1037014E+00 (  -2.822eV)
    -0.1061031E+00 (  -2.887eV)
    -0.1099050E+00 (  -2.991eV)
    -0.1159237E+00 (  -3.154eV)
    -0.1230687E+00 (  -3.349eV)
    -0.1356152E+00 (  -3.690eV)
    -0.1429208E+00 (  -3.889eV)
    -0.1527111E+00 (  -4.156eV)
    -0.1692994E+00 (  -4.607eV)
    -0.1751055E+00 (  -4.765eV)
    -0.1830697E+00 (  -4.982eV)
    -0.1947379E+00 (  -5.299eV)
    -0.2053197E+00 (  -5.587eV)
    -0.2088469E+00 (  -5.683eV)
    -0.2118017E+00 (  -5.763eV)
    -0.2356947E+00 (  -6.414eV)
    -0.2444758E+00 (  -6.653eV)
    -0.2560642E+00 (  -6.968eV)
    -0.2671415E+00 (  -7.269eV)
    -0.2741596E+00 (  -7.460eV)
    -0.2867635E+00 (  -7.803eV)
    -0.2969416E+00 (  -8.080eV)
    -0.3055465E+00 (  -8.314eV)
    -0.3323609E+00 (  -9.044eV)
    -0.3443484E+00 (  -9.370eV)
    -0.3564147E+00 (  -9.699eV)
    -0.3615632E+00 (  -9.839eV)
    -0.3697383E+00 ( -10.061eV)
    -0.3748278E+00 ( -10.200eV)
    -0.3869372E+00 ( -10.529eV)
    -0.4188321E+00 ( -11.397eV)
    -0.4199350E+00 ( -11.427eV)
    -0.4225893E+00 ( -11.499eV)
    -0.4344442E+00 ( -11.822eV)
    -0.4629959E+00 ( -12.599eV)
    -0.4688666E+00 ( -12.759eV)
    -0.4737831E+00 ( -12.892eV)
    -0.4820094E+00 ( -13.116eV)
    -0.4851989E+00 ( -13.203eV)
    -0.4894251E+00 ( -13.318eV)
    -0.5163800E+00 ( -14.052eV)
    -0.5175306E+00 ( -14.083eV)
    -0.5332430E+00 ( -14.510eV)
    -0.5698546E+00 ( -15.507eV)
    -0.6523420E+00 ( -17.751eV)
    -0.7027555E+00 ( -19.123eV)
    -0.7242998E+00 ( -19.709eV)
    -0.8640959E+00 ( -23.513eV)
    -0.8771243E+00 ( -23.868eV)
    -0.9212358E+00 ( -25.068eV)

 Total PSPW energy     :  -0.2756835683E+03


=== Spin Contamination ===
 
 <Sexact^2> =     0.000000000000000     
 <S^2>      =     0.000000000000000     
 


== Center of Charge ==

spin up     (   -0.0673,    0.7554,    0.1702 )
spin down   (   -0.0673,    0.7554,    0.1702 )
     total  (   -0.0673,    0.7554,    0.1702 )
ionic       (   -0.0110,   -0.0164,    0.0022 )


== Molecular Dipole wrt Center of Mass ==

mu   =  (   16.8747, -231.5724,  -50.3861 ) au
|mu| =   237.5906 au,     603.8603 Debye

 output psi filename:/lustre/atlas/scratch/hjjvd/csc249/.3801549/nwc_pweg_dat.movecs


== Timing ==

cputime in seconds
  prologue    :   0.631884E+02
  main loop   :   0.237680E+03
  epilogue    :   0.152924E+02
  total       :   0.316161E+03
  cputime/step:   0.637212E+00       (     373 evalulations,     163 linesearches)


Time spent doing                        total          step       percent
  total time                 :   0.317530E+03  0.851287E+00       100.0 %
  i/o time                   :   0.479244E+02  0.128484E+00        15.1 %
  FFTs                       :   0.190469E+02  0.510641E-01         6.0 %
  dot products               :   0.418439E+02  0.112182E+00        13.2 %
  geodesic                   :   0.149751E+03  0.401478E+00        47.2 %
  ffm_dgemm                  :   0.366204E+02  0.981779E-01        11.5 %
  fmf_dgemm                  :   0.798496E+02  0.214074E+00        25.1 %
  mmm_dgemm                  :   0.405069E+01  0.108598E-01         1.3 %
[...]
converting .... psi:   45 spin: 1
converting .... psi:   46 spin: 1
converting .... psi:   47 spin: 1
converting .... psi:   48 spin: 1
converting .... psi:   49 spin: 1
converting .... psi:   50 spin: 1
converting .... psi:   51 spin: 1
converting .... psi:   52 spin: 1
converting .... psi:   53 spin: 1
converting .... psi:   54 spin: 1
converting .... psi:   55 spin: 1
converting .... psi:   56 spin: 1
converting .... psi:   57 spin: 1
converting .... psi:   58 spin: 1
converting .... psi:   59 spin: 1
converting .... psi:   60 spin: 1
converting .... psi:   61 spin: 1
converting .... psi:   62 spin: 1
converting .... psi:   63 spin: 1
converting .... psi:   64 spin: 1
converting .... psi:   65 spin: 1
converting .... psi:   66 spin: 1
converting .... psi:   67 spin: 1
converting .... psi:   68 spin: 1
converting .... psi:   69 spin: 1
converting .... psi:   70 spin: 1
converting .... psi:   71 spin: 1
converting .... psi:   72 spin: 1
converting .... psi:   73 spin: 1
converting .... psi:   74 spin: 1
converting .... psi:   75 spin: 1
converting .... psi:   76 spin: 1
converting .... psi:   77 spin: 1
converting .... psi:   78 spin: 1
converting .... psi:   79 spin: 1
converting .... psi:   80 spin: 1
converting .... psi:   81 spin: 1
converting .... psi:   82 spin: 1
converting .... psi:   83 spin: 1
converting .... psi:   84 spin: 1
converting .... psi:   85 spin: 1
converting .... psi:   86 spin: 1
converting .... psi:   87 spin: 1
converting .... psi:   88 spin: 1
converting .... psi:   89 spin: 1
converting .... psi:   90 spin: 1
converting .... psi:   91 spin: 1
converting .... psi:   92 spin: 1
converting .... psi:   93 spin: 1
converting .... psi:   94 spin: 1
converting .... psi:   95 spin: 1
converting .... psi:   96 spin: 1
converting .... psi:   97 spin: 1
converting .... psi:   98 spin: 1
converting .... psi:   99 spin: 1
converting .... psi:  100 spin: 1
converting .... psi:  101 spin: 1
converting .... psi:  102 spin: 1
converting .... psi:  103 spin: 1
converting .... psi:  104 spin: 1
converting .... psi:  105 spin: 1
converting .... psi:  106 spin: 1
converting .... psi:  107 spin: 1
converting .... psi:  108 spin: 1
converting .... psi:  109 spin: 1
converting .... psi:  110 spin: 1
converting .... psi:  111 spin: 1
converting .... psi:  112 spin: 1
converting .... psi:  113 spin: 1
converting .... psi:  114 spin: 1
converting .... psi:  115 spin: 1
converting .... psi:  116 spin: 1
converting .... psi:  117 spin: 1
converting .... psi:  118 spin: 1
converting .... psi:  119 spin: 1
converting .... psi:  120 spin: 1
converting .... psi:  121 spin: 1
converting .... psi:  122 spin: 1
converting .... psi:  123 spin: 1
converting .... psi:  124 spin: 1
converting .... psi:  125 spin: 1
converting .... psi:  126 spin: 1
converting .... psi:  127 spin: 1
converting .... psi:  128 spin: 1
converting .... psi:  129 spin: 1
converting .... psi:  130 spin: 1
converting .... psi:  131 spin: 1
converting .... psi:  132 spin: 1
converting .... psi:  133 spin: 1
converting .... psi:  134 spin: 1
converting .... psi:  135 spin: 1
converting .... psi:  136 spin: 1
converting .... psi:  137 spin: 1
converting .... psi:  138 spin: 1
converting .... psi:  139 spin: 1
converting .... psi:  140 spin: 1
converting .... psi:  141 spin: 1
converting .... psi:  142 spin: 1
converting .... psi:  143 spin: 1
converting .... psi:  144 spin: 1
converting .... psi:  145 spin: 1
converting .... psi:  146 spin: 1
converting .... psi:  147 spin: 1
converting .... psi:  148 spin: 1
converting .... psi:  149 spin: 1
converting .... psi:  150 spin: 1

 input psi filename:/lustre/atlas/scratch/hjjvd/csc249/.3801549/nwc_pweg_dat.movecs

 number of processors used:       512
 processor grid           :  64 x   8
 parallel mapping         :2d hilbert
 parallel mapping         :  balanced
 number of threads        :         1
 parallel io              :       off

 options:
      boundary conditions  = aperiodic   (version4)
      electron spin        = restricted
      exchange-correlation = PBE96 (White and Bird) parameterization

 elements involved in the cluster:
      1: N   valence charge:  5.0000  lmax=  2
             comment    : Hamann pseudopotential
             pseudpotential type            :   0
             highest angular component      :   2
             local potential used           :   2
             number of non-local projections:   4
             aperiodic cutoff radius        :  1.000
             cutoff =   0.700   0.700   0.700
 
      2: C   valence charge:  4.0000  lmax=  2
             comment    : Parameterized (J.Phys.Chem., vol 100, page 6966) Hamman psp
             pseudpotential type            :   0
             highest angular component      :   2
             local potential used           :   2
             number of non-local projections:   4
             aperiodic cutoff radius        :  1.000
             cutoff =   0.800   0.850   0.850
 
      3: O   valence charge:  6.0000  lmax=  2
             comment    : Parameterized (Chem.Phys.Lett., vol 322, page 447) Hamman psp
             pseudpotential type            :   0
             highest angular component      :   2
             local potential used           :   2
             number of non-local projections:   4
             aperiodic cutoff radius        :  1.000
             cutoff =   0.700   0.700   0.700
 
      4: H   valence charge:  1.0000  lmax=  1
             comment    : Parameterized (Chem.Phys.Lett., vol 322, page 447) Hamman psp
             pseudpotential type            :   0
             highest angular component      :   1
             local potential used           :   1
             number of non-local projections:   1
             aperiodic cutoff radius        :  1.000
             cutoff =   0.800   0.800
 

 total charge:   1.000

 atomic composition:
     N   :   10     C   :   30     O   :   13     H   :   53

 number of electrons: spin up=   150 (  19 per task)  down=   150 (  19 per task) (Fourier space)
 number of orbitals : spin up=   150 (  19 per task)  down=   150 (  19 per task) (Fourier space)

 supercell:
      cell_name:  cell_default                                      
      lattice:    a1=<  26.000   0.000   0.000 >
                  a2=<   0.000  23.000   0.000 >
                  a3=<   0.000   0.000  27.000 >
      reciprocal: b1=<   0.242   0.000  -0.000 >
                  b2=<  -0.000   0.273  -0.000 >
                  b3=<   0.000   0.000   0.233 >
      lattice:    a=      26.000 b=     23.000 c=      27.000
                  alpha=  90.000 beta=  90.000 gamma=  90.000
                  omega=     16146.0

      density cutoff=100.000  fft=120x108x126(   385606 waves     6025 per task)
      wavefnc cutoff= 50.000  fft=120x108x126(   136372 waves     2130 per task)

 technical parameters:
      time step=      5.80     fictitious mass=  400000.0
      tolerance=0.100E-06 (energy)   0.100E-06 (density)
      maximum iterations =      1000 (   10 inner    100 outer )





== Energy Calculation ==


          ============ Grassmann lmbfgs iteration ============
     >>>  ITERATION STARTED AT Thu Dec 28 23:34:43 2017  <<<
    iter.           Energy         DeltaE       DeltaRho 
    ------------------------------------------------------
      10   -0.2757331954E+03   -0.12249E-03    0.50900E-02
      20   -0.2757335815E+03   -0.14332E-04    0.19363E-04
      30   -0.2757336592E+03   -0.46681E-05    0.21301E-05
      40   -0.2757336904E+03   -0.22097E-05    0.58178E-06
      50   -0.2757337070E+03   -0.12607E-05    0.27130E-06
      60   -0.2757337172E+03   -0.80884E-06    0.15758E-06
      70   -0.2757337237E+03   -0.52603E-06    0.11407E-06
      80   -0.2757337279E+03   -0.32604E-06    0.84599E-07
      90   -0.2757337304E+03   -0.21200E-06    0.52448E-07
     100   -0.2757337322E+03   -0.15761E-06    0.39810E-07
     110   -0.2757337336E+03   -0.11291E-06    0.31043E-07
     120   -0.2757337340E+03   -0.97402E-07    0.41173E-08
  *** tolerance ok. iteration terminated
     >>>  ITERATION ENDED   AT Thu Dec 28 23:40:57 2017  <<<


==  Summary Of Results  ==
 
 number of electrons: spin up=  150.00000  down=  150.00000 (real space)

 total     energy    :  -0.2757337340E+03 (   -0.26013E+01/ion)
 total orbital energy:  -0.1126987059E+02 (   -0.75132E-01/electron)
 hartree   energy    :   0.4537675680E+04 (    0.30251E+02/electron)
 exc-corr  energy    :  -0.1299300528E+03 (   -0.86620E+00/electron)
 ion-ion   energy    :   0.4234221436E+04 (    0.39945E+02/ion)

 kinetic (planewave) :   0.3007783077E+03 (    0.20052E+01/electron)
 V_local (planewave) :  -0.9205237775E+04 (   -0.61368E+02/electron)
 V_nl    (planewave) :  -0.1324132973E+02 (   -0.88276E-01/electron)
 V_Coul  (planewave) :   0.9075351360E+04 (    0.60502E+02/electron)
 V_xc.   (planewave) :  -0.1689204337E+03 (   -0.11261E+01/electron)
 Virial Coefficient  :  -0.1037469027E+01

 orbital energies:
     0.3463910E+00 (   9.426eV)
     0.3434019E+00 (   9.345eV)
     0.3397978E+00 (   9.246eV)
     0.3345498E+00 (   9.104eV)
     0.3326969E+00 (   9.053eV)
     0.3309047E+00 (   9.004eV)
     0.3204882E+00 (   8.721eV)
     0.3196565E+00 (   8.698eV)
     0.3149206E+00 (   8.569eV)
     0.3107843E+00 (   8.457eV)
     0.3025333E+00 (   8.232eV)
     0.2942845E+00 (   8.008eV)
     0.2856307E+00 (   7.772eV)
     0.2805602E+00 (   7.634eV)
     0.2783561E+00 (   7.575eV)
     0.2744332E+00 (   7.468eV)
     0.2692245E+00 (   7.326eV)
     0.2681629E+00 (   7.297eV)
     0.2633817E+00 (   7.167eV)
     0.2561649E+00 (   6.971eV)
     0.2530954E+00 (   6.887eV)
     0.2506734E+00 (   6.821eV)
     0.2475563E+00 (   6.736eV)
     0.2435722E+00 (   6.628eV)
     0.2418603E+00 (   6.581eV)
     0.2396405E+00 (   6.521eV)
     0.2351271E+00 (   6.398eV)
     0.2286509E+00 (   6.222eV)
     0.2254517E+00 (   6.135eV)
     0.2205634E+00 (   6.002eV)
     0.2163293E+00 (   5.887eV)
     0.2050854E+00 (   5.581eV)
     0.2011999E+00 (   5.475eV)
     0.1937394E+00 (   5.272eV)
     0.1923240E+00 (   5.233eV)
     0.1853983E+00 (   5.045eV)
     0.1767845E+00 (   4.811eV)
     0.1732596E+00 (   4.715eV)
     0.1645222E+00 (   4.477eV)
     0.1610660E+00 (   4.383eV)
     0.1569043E+00 (   4.270eV)
     0.1533812E+00 (   4.174eV)
     0.1452900E+00 (   3.954eV)
     0.1384750E+00 (   3.768eV)
     0.1358190E+00 (   3.696eV)
     0.1319023E+00 (   3.589eV)
     0.1289238E+00 (   3.508eV)
     0.1257550E+00 (   3.422eV)
     0.1216662E+00 (   3.311eV)
     0.1184399E+00 (   3.223eV)
     0.1145436E+00 (   3.117eV)
     0.1138907E+00 (   3.099eV)
     0.1129649E+00 (   3.074eV)
     0.1075298E+00 (   2.926eV)
     0.1019026E+00 (   2.773eV)
     0.9602745E-01 (   2.613eV)
     0.9373310E-01 (   2.551eV)
     0.9129585E-01 (   2.484eV)
     0.9028367E-01 (   2.457eV)
     0.8620544E-01 (   2.346eV)
     0.8392045E-01 (   2.284eV)
     0.7678568E-01 (   2.089eV)
     0.7317809E-01 (   1.991eV)
     0.7098684E-01 (   1.932eV)
     0.6755100E-01 (   1.838eV)
     0.6359661E-01 (   1.731eV)
     0.5942744E-01 (   1.617eV)
     0.5807833E-01 (   1.580eV)
     0.5589174E-01 (   1.521eV)
     0.5079559E-01 (   1.382eV)
     0.4883687E-01 (   1.329eV)
     0.4142826E-01 (   1.127eV)
     0.4094027E-01 (   1.114eV)
     0.3626091E-01 (   0.987eV)
     0.3256961E-01 (   0.886eV)
     0.2939107E-01 (   0.800eV)
     0.2495558E-01 (   0.679eV)
     0.1811318E-01 (   0.493eV)
     0.1721382E-01 (   0.468eV)
     0.1215460E-01 (   0.331eV)
     0.1196048E-01 (   0.325eV)
     0.9206631E-02 (   0.251eV)
     0.1135216E-02 (   0.031eV)
    -0.3881645E-02 (  -0.106eV)
    -0.7752019E-02 (  -0.211eV)
    -0.1312254E-01 (  -0.357eV)
    -0.1752722E-01 (  -0.477eV)
    -0.2106588E-01 (  -0.573eV)
    -0.2454448E-01 (  -0.668eV)
    -0.3214832E-01 (  -0.875eV)
    -0.4066179E-01 (  -1.106eV)
    -0.4369343E-01 (  -1.189eV)
    -0.4807323E-01 (  -1.308eV)
    -0.5832415E-01 (  -1.587eV)
    -0.6611957E-01 (  -1.799eV)
    -0.6894023E-01 (  -1.876eV)
    -0.7173543E-01 (  -1.952eV)
    -0.8066840E-01 (  -2.195eV)
    -0.9229202E-01 (  -2.511eV)
    -0.9939936E-01 (  -2.705eV)
    -0.1049901E+00 (  -2.857eV)
    -0.1071790E+00 (  -2.917eV)
    -0.1120023E+00 (  -3.048eV)
    -0.1177322E+00 (  -3.204eV)
    -0.1242186E+00 (  -3.380eV)
    -0.1382876E+00 (  -3.763eV)
    -0.1431179E+00 (  -3.894eV)
    -0.1528083E+00 (  -4.158eV)
    -0.1665678E+00 (  -4.533eV)
    -0.1756576E+00 (  -4.780eV)
    -0.1839348E+00 (  -5.005eV)
    -0.1953249E+00 (  -5.315eV)
    -0.2065078E+00 (  -5.619eV)
    -0.2094459E+00 (  -5.699eV)
    -0.2136016E+00 (  -5.812eV)
    -0.2376654E+00 (  -6.467eV)
    -0.2457747E+00 (  -6.688eV)
    -0.2563745E+00 (  -6.976eV)
    -0.2675624E+00 (  -7.281eV)
    -0.2741494E+00 (  -7.460eV)
    -0.2864885E+00 (  -7.796eV)
    -0.2985662E+00 (  -8.124eV)
    -0.3064826E+00 (  -8.340eV)
    -0.3328477E+00 (  -9.057eV)
    -0.3442885E+00 (  -9.369eV)
    -0.3558980E+00 (  -9.685eV)
    -0.3605193E+00 (  -9.810eV)
    -0.3713595E+00 ( -10.105eV)
    -0.3742388E+00 ( -10.184eV)
    -0.3866666E+00 ( -10.522eV)
    -0.4201701E+00 ( -11.434eV)
    -0.4209553E+00 ( -11.455eV)
    -0.4219914E+00 ( -11.483eV)
    -0.4342851E+00 ( -11.818eV)
    -0.4610943E+00 ( -12.547eV)
    -0.4678893E+00 ( -12.732eV)
    -0.4736624E+00 ( -12.889eV)
    -0.4812956E+00 ( -13.097eV)
    -0.4839336E+00 ( -13.169eV)
    -0.4897820E+00 ( -13.328eV)
    -0.5194951E+00 ( -14.136eV)
    -0.5206708E+00 ( -14.168eV)
    -0.5320357E+00 ( -14.478eV)
    -0.5694207E+00 ( -15.495eV)
    -0.6524761E+00 ( -17.755eV)
    -0.7076479E+00 ( -19.256eV)
    -0.7248780E+00 ( -19.725eV)
    -0.8740595E+00 ( -23.785eV)
    -0.8836736E+00 ( -24.046eV)
    -0.9268465E+00 ( -25.221eV)

 Total PSPW energy     :  -0.2757337340E+03


=== Spin Contamination ===
 
 <Sexact^2> =     0.000000000000000     
 <S^2>      =     0.000000000000000     
 


== Center of Charge ==

spin up     (   -0.0634,    0.6376,    0.1455 )
spin down   (   -0.0634,    0.6376,    0.1455 )
     total  (   -0.0634,    0.6376,    0.1455 )
ionic       (   -0.0110,   -0.0164,    0.0022 )


== Molecular Dipole wrt Center of Mass ==

mu   =  (   15.7018, -196.2193,  -42.9809 ) au
|mu| =   201.4843 au,     512.0925 Debye

 output psi filename:/lustre/atlas/scratch/hjjvd/csc249/.3801549/nwc_pweg_dat.movecs


== Timing ==

cputime in seconds
  prologue    :   0.972207E+02
  main loop   :   0.375406E+03
  epilogue    :   0.310347E+02
  total       :   0.503661E+03
  cputime/step:   0.143285E+01       (     262 evalulations,     114 linesearches)


Time spent doing                        total          step       percent
  total time                 :   0.504721E+03  0.192642E+01       100.0 %
  i/o time                   :   0.760146E+02  0.290132E+00        15.1 %
  FFTs                       :   0.364243E+02  0.139024E+00         7.2 %
  dot products               :   0.325183E+02  0.124116E+00         6.4 %
  geodesic                   :   0.222659E+03  0.849842E+00        44.1 %
  ffm_dgemm                  :   0.417284E+02  0.159269E+00         8.3 %
  fmf_dgemm                  :   0.168989E+03  0.644997E+00        33.5 %
  mmm_dgemm                  :   0.423451E+01  0.161623E-01         0.8 %
  m_diagonalize              :   0.241764E+01  0.922762E-02         0.5 %
  exchange correlation       :   0.211798E+02  0.808388E-01         4.2 %
  local pseudopotentials     :   0.104478E+00  0.398771E-03         0.0 %
  non-local pseudopotentials :   0.167273E+02  0.638448E-01         3.3 %
  structure factors          :   0.924484E+00  0.352857E-02         0.2 %
  phase factors              :   0.882863E-03  0.336971E-05         0.0 %
  masking and packing        :   0.537625E+01  0.205200E-01         1.1 %
  queue fft                  :   0.357070E+02  0.136286E+00         7.1 %
  queue fft (serial)         :   0.119824E+02  0.457343E-01         2.4 %
  queue fft (message passing):   0.230029E+02  0.877975E-01         4.6 %
  non-local psp FFM          :   0.896160E+01  0.342046E-01         1.8 %
  non-local psp FMF          :   0.662479E+01  0.252855E-01         1.3 %
  non-local psp FFM A        :   0.691535E+00  0.263945E-02         0.1 %
  non-local psp FFM B        :   0.653597E+01  0.249465E-01         1.3 %
 
     >>>  JOB COMPLETED     AT Thu Dec 28 23:41:29 2017  <<<

 Task  times  cpu:     1498.9s     wall:     1564.1s
 
 
                                NWChem Input Module
                                -------------------
 
 
 Summary of allocated global arrays
-----------------------------------
  No active global arrays



                         GA Statistics for process    0
                         ------------------------------

       create   destroy   get      put      acc     scatter   gather  read&inc
calls:    0        0        0        0        0        0        0        0     
number of processes/call 0.00e+00 0.00e+00 0.00e+00 0.00e+00 0.00e+00
bytes total:             0.00e+00 0.00e+00 0.00e+00 0.00e+00 0.00e+00 0.00e+00
bytes remote:            0.00e+00 0.00e+00 0.00e+00 0.00e+00 0.00e+00 0.00e+00
Max memory consumed for GA by this process: 0 bytes
 
MA_summarize_allocated_blocks: starting scan ...
MA_summarize_allocated_blocks: scan completed: 0 heap blocks, 0 stack blocks
MA usage statistics:

	allocation statistics:
					      heap	     stack
					      ----	     -----
	current number of blocks	         0	         0
	maximum number of blocks	       320	        15
	current total bytes		         0	         0
	maximum total bytes		 120992600	   6637592
	maximum total K-bytes		    120993	      6638
	maximum total M-bytes		       121	         7
 
 
                                     CITATION
                                     --------
                Please cite the following reference when publishing
                           results obtained with NWChem:
 
                 M. Valiev, E.J. Bylaska, N. Govind, K. Kowalski,
              T.P. Straatsma, H.J.J. van Dam, D. Wang, J. Nieplocha,
                        E. Apra, T.L. Windus, W.A. de Jong
                 "NWChem: a comprehensive and scalable open-source
                  solution for large scale molecular simulations"
                      Comput. Phys. Commun. 181, 1477 (2010)
                           doi:10.1016/j.cpc.2010.04.018
 
                                      AUTHORS
                                      -------
          E. Apra, E. J. Bylaska, W. A. de Jong, N. Govind, K. Kowalski,
       T. P. Straatsma, M. Valiev, H. J. J. van Dam, D. Wang, T. L. Windus,
        J. Hammond, J. Autschbach, K. Bhaskaran-Nair, J. Brabec, K. Lopata,
    S. A. Fischer, S. Krishnamoorthy, M. Jacquelin, W. Ma, M. Klemm, O. Villa,
      Y. Chen, V. Anisimov, F. Aquino, S. Hirata, M. T. Hackler, V. Konjkov,
      T. Risthaus, M. Malagoli, A. Marenich, A. Otero-de-la-Roza, J. Mullin,
        P. Nichols, R. Peverati, J. Pittner, Y. Zhao, P.-D. Fan, A. Fonari,
       M. Williamson, R. J. Harrison, J. R. Rehr, M. Dupuis, D. Silverstein,
    D. M. A. Smith, J. Nieplocha, V. Tipparaju, M. Krishnan, B. E. Van Kuiken,
        A. Vazquez-Mayagoitia, L. Jensen, M. Swart, Q. Wu, T. Van Voorhis,
     A. A. Auer, M. Nooijen, L. D. Crosby, E. Brown, G. Cisneros, G. I. Fann,
   H. Fruchtl, J. Garza, K. Hirao, R. A. Kendall, J. A. Nichols, K. Tsemekhman,
    K. Wolinski, J. Anchell, D. E. Bernholdt, P. Borowski, T. Clark, D. Clerc,
   H. Dachsel, M. J. O. Deegan, K. Dyall, D. Elwood, E. Glendening, M. Gutowski,
   A. C. Hess, J. Jaffe, B. G. Johnson, J. Ju, R. Kobayashi, R. Kutteh, Z. Lin,
   R. Littlefield, X. Long, B. Meng, T. Nakajima, S. Niu, L. Pollack, M. Rosing,
   K. Glaesemann, G. Sandrone, M. Stave, H. Taylor, G. Thomas, J. H. van Lenthe,
                               A. T. Wong, Z. Zhang.

 Total times  cpu:     1499.1s     wall:     1564.5s
Application 16561038 resources: utime ~796667s, stime ~4740s, Rss ~136144, inblocks ~25343164, outblocks ~36518812
