/autofs/nccs-svm1_home1/hjjvd
CODAR
NWX_TA
Nwchem-6.6.revision27746-src.2015-10-20.tar.gz
bin
lib
man
summitdev
titan
tksvn
PE 0: MPICH Warning: DMAPP optimizations are not supported if libdmapp is not linked into your application. Please see the mpi man page. Disabling all requested DMAPP optimizations.
 argument  1 = nwc_pweg_ledgrtlsd_25.nw
 


============================== echo of input deck ==============================
echo
start nwc_pweg_dat
title "E and Grad of 1UBQ-LEDGRTLSD"
geometry noautoz
   load format pdb "ledgrtlsd.pdb"
end
charge +1
nwpw
  simulation_cell
    boundary_conditions aperiodic
    lattice
      # coordinate ranges and lattice parameters.
      # 20 - 36
      # 12 - 27
      #  9 - 26
      lat_a 26.0
      lat_b 25.0
      lat_c 27.0
    end
  end
  xc pbe96
  lmbfgs
  cutoff 100
end
task pspw energy
================================================================================


                                         
                                         
 
 
              Northwest Computational Chemistry Package (NWChem) 6.8
              ------------------------------------------------------
 
 
                    Environmental Molecular Sciences Laboratory
                       Pacific Northwest National Laboratory
                                Richland, WA 99352
 
                              Copyright (c) 1994-2015
                       Pacific Northwest National Laboratory
                            Battelle Memorial Institute
 
             NWChem is an open-source computational chemistry package
                        distributed under the terms of the
                      Educational Community License (ECL) 2.0
             A copy of the license is included with this distribution
                              in the LICENSE.TXT file
 
                                  ACKNOWLEDGMENT
                                  --------------

            This software and its documentation were developed at the
            EMSL at Pacific Northwest National Laboratory, a multiprogram
            national laboratory, operated for the U.S. Department of Energy
            by Battelle under Contract Number DE-AC05-76RL01830. Support
            for this work was provided by the Department of Energy Office
            of Biological and Environmental Research, Office of Basic
            Energy Sciences, and the Office of Advanced Scientific Computing.


           Job information
           ---------------

    hostname        = nid03353
    program         = /lustre/atlas/scratch/hjjvd/csc249/.3808944/nwchem
    date            = Thu Jan  4 01:14:29 2018

    compiled        = Sat_Dec_09_23:43:41_2017
    source          = /ccs/home/hjjvd/titan/nwchem-1
    nwchem branch   = Development
    nwchem revision = nwchem_on_git-33-g3c4cbf4646b30649e18a6f8f9c6df3a50082e145
    ga revision     = nwchem_on_git-33-g3c4cbf4
    use scalapack   = T
    input           = nwc_pweg_ledgrtlsd_25.nw
    prefix          = nwc_pweg_dat.
    data base       = /lustre/atlas/scratch/hjjvd/csc249/.3808944/nwc_pweg_dat.db
    status          = startup
    nproc           =     2048
    time left       =     -1s



           Memory information
           ------------------

    heap     =    6553600 doubles =     50.0 Mbytes
    stack    =  104857597 doubles =    800.0 Mbytes
    global   =  268435456 doubles =   2048.0 Mbytes (distinct from heap & stack)
    total    =  379846653 doubles =   2898.0 Mbytes
    verify   = yes
    hardfail = no 


           Directory information
           ---------------------
 
  0 permanent = /lustre/atlas/scratch/hjjvd/csc249/.3808944
  0 scratch   = /lustre/atlas/scratch/hjjvd/csc249/.3808944
 
 
 
 
                                NWChem Input Module
                                -------------------
 
 
                           E and Grad of 1UBQ-LEDGRTLSD
                           ----------------------------

 Scaling coordinates for geometry "geometry" by  1.889725989
 (inverse scale =  0.529177249)

 C1  symmetry detected
 
 
                             Geometry "geometry" -> ""
                             -------------------------
 
 Output coordinates in angstroms (scale by  1.889725989 to convert to a.u.)
 
  No.       Tag          Charge          X              Y              Z
 ---- ---------------- ---------- -------------- -------------- --------------
    1 N                    7.0000     5.15299134     3.86971220    -3.67114875
    2 C                    6.0000     4.18890636     3.20441655    -2.77867587
    3 C                    6.0000     3.29521147     4.23802746    -2.11313630
    4 O                    8.0000     3.81478498     5.25861394    -1.70922962
    5 C                    6.0000     4.96425407     2.28970271    -1.82602403
    6 C                    6.0000     5.96130510     1.32583476    -2.46932786
    7 C                    6.0000     6.51964419     0.36057955    -1.41966657
    8 C                    6.0000     5.33388755     0.50013918    -3.56477573
    9 N                    7.0000     1.99677421     3.94905098    -2.01228356
   10 C                    6.0000     1.05394604     4.92417889    -1.42337728
   11 C                    6.0000     0.72646907     4.53251266    -0.00895499
   12 O                    8.0000     0.55612723     3.34564163     0.25871236
   13 C                    6.0000    -0.19032349     4.92677542    -2.28919978
   14 C                    6.0000    -1.41368967     5.74171714    -1.80875917
   15 C                    6.0000    -2.10240964     6.42565516    -2.97199628
   16 O                    8.0000    -3.15726043     7.02444441    -2.92450680
   17 O                    8.0000    -1.36962963     6.26684471    -3.99838008
   18 N                    7.0000     0.62698943     5.45628563     0.91389132
   19 C                    6.0000     0.40134708     5.23111086     2.33749514
   20 C                    6.0000    -0.69655609     4.29419892     2.81087939
   21 O                    8.0000    -0.48702033     3.59094972     3.84011810
   22 C                    6.0000     0.24612106     6.61743828     3.02993805
   23 C                    6.0000     1.58324462     7.29714563     3.24559401
   24 O                    8.0000     1.60703237     8.44064657     3.75154732
   25 O                    8.0000     2.63802485     6.74665500     2.90064656
   26 N                    7.0000    -1.85756278     4.35129802     2.19956184
   27 C                    6.0000    -3.03842925     3.55289054     2.57652719
   28 C                    6.0000    -3.08876920     2.16223152     2.03818771
   29 O                    8.0000    -3.94648158     1.34670783     2.44689370
   30 N                    7.0000    -2.19490372     1.78559933     1.13099771
   31 C                    6.0000    -2.13366323     0.40529186     0.60864736
   32 C                    6.0000    -1.28458728    -0.42173904     1.56221954
   33 O                    8.0000    -0.49947014     0.13400138     2.36054445
   34 C                    6.0000    -1.50682958     0.34745229    -0.78627850
   35 C                    6.0000    -2.20707930     1.24124810    -1.82986289
   36 C                    6.0000    -3.56671095     0.54604181    -2.12758082
   37 N                    7.0000    -4.56804878     1.46394329    -1.63255615
   38 C                    6.0000    -5.59059862     1.38882804    -0.83813401
   39 N                    7.0000    -6.00942791     0.30042027    -0.22059815
   40 N                    7.0000    -6.25983464     2.53889697    -0.55977882
   41 N                    7.0000    -1.35453419    -1.72276846     1.43090353
   42 C                    6.0000    -0.55505673    -2.68124427     2.22723633
   43 C                    6.0000     0.56379439    -3.20832059     1.29786464
   44 O                    8.0000     0.50137274    -3.02426003     0.08664903
   45 C                    6.0000    -1.42499379    -3.87666701     2.72066105
   46 O                    8.0000    -1.90542757    -4.46803244     1.43657292
   47 C                    6.0000    -2.61629548    -3.54390563     3.59652927
   48 N                    7.0000     1.55963704    -3.82358600     1.90148695
   49 C                    6.0000     2.67398167    -4.43765677     1.15920256
   50 C                    6.0000     2.10295904    -5.53020887     0.25918809
   51 O                    8.0000     2.52555423    -5.62826045    -0.86078387
   52 C                    6.0000     3.69684500    -4.97314948     2.18343895
   53 C                    6.0000     4.35440838    -3.99112033     3.15242716
   54 C                    6.0000     5.34902647    -4.71987924     4.07085532
   55 C                    6.0000     5.19670244    -2.97150603     2.38896308
   56 N                    7.0000     1.06758821    -6.24866737     0.74122091
   57 C                    6.0000     0.51931590    -7.31978788    -0.12785638
   58 C                    6.0000    -0.08296309    -6.76943884    -1.40156041
   59 O                    8.0000    -0.05562342    -7.45248923    -2.46947038
   60 C                    6.0000    -0.51418619    -8.17405680     0.61981537
   61 O                    8.0000    -1.57879691    -7.38461163     1.06966796
   62 N                    7.0000    -0.59574062    -5.55352563    -1.34793900
   63 C                    6.0000    -1.20816960    -4.91432301    -2.54297907
   64 C                    6.0000    -0.21665704    -4.88783149    -3.71031195
   65 O                    8.0000    -0.58053426    -4.91601975    -4.88959045
   66 C                    6.0000    -1.76989385    -3.54024817    -2.26587586
   67 C                    6.0000    -3.04334001    -3.47269411    -1.46549511
   68 O                    8.0000    -3.31167982    -2.42315482    -0.85100749
   69 O                    8.0000    -3.76836932    -4.51633270    -1.49217837
   70 H                    1.0000     6.16716235     4.02210803    -3.32298544
   71 H                    1.0000     3.46735962     2.53150423    -3.34986524
   72 H                    1.0000     5.54165556     2.95359883    -1.10147282
   73 H                    1.0000     4.17728694     1.62736282    -1.33422874
   74 H                    1.0000     6.78878665     1.96973586    -2.91688977
   75 H                    1.0000     5.66042861    -0.20060844    -0.92302825
   76 H                    1.0000     7.21935806    -0.38498493    -1.92317338
   77 H                    1.0000     7.09491995     0.94885727    -0.63082430
   78 H                    1.0000     4.22915516     0.34023622    -3.33469663
   79 H                    1.0000     5.44017379     1.04603486    -4.56009786
   80 H                    1.0000     5.85953760    -0.51000101    -3.62692726
   81 H                    1.0000     1.63004254     2.99337280    -2.36415870
   82 H                    1.0000     1.50963649     5.96848854    -1.39012699
   83 H                    1.0000     0.10900546     5.33654710    -3.30945727
   84 H                    1.0000    -0.54768615     3.84519017    -2.27257847
   85 H                    1.0000    -2.15248267     5.03909987    -1.29866126
   86 H                    1.0000    -1.05391151     6.54064784    -1.07903634
   87 H                    1.0000    -0.45555571     5.72801514    -3.92114303
   88 H                    1.0000     0.72133001     6.48513620     0.58987379
   89 H                    1.0000     1.32609852     4.63844219     2.64131848
   90 H                    1.0000    -0.40486265     7.28502982     2.37420736
   91 H                    1.0000    -0.23236360     6.44961780     4.05111518
   92 H                    1.0000     0.69785641     8.92092788     4.02370705
   93 H                    1.0000    -1.95456956     5.03110697     1.36236683
   94 H                    1.0000    -3.06578649     3.48761207     3.71394193
   95 H                    1.0000    -3.93180750     4.09198803     2.11753023
   96 H                    1.0000    -1.48601831     2.51616759     0.76129310
   97 H                    1.0000    -3.19581822     0.00016622     0.52980575
   98 H                    1.0000    -0.41906021     0.67863187    -0.70384748
   99 H                    1.0000    -1.61374187    -0.72713468    -1.14984088
  100 H                    1.0000    -2.37823273     2.28644909    -1.40876861
  101 H                    1.0000    -1.57805337     1.36265287    -2.77311114
  102 H                    1.0000    -3.69448109     0.37800454    -3.24752380
  103 H                    1.0000    -3.64188753    -0.47909842    -1.63543247
  104 H                    1.0000    -4.43026203     2.46468563    -2.02241711
  105 H                    1.0000    -5.48464539    -0.63620148    -0.35919107
  106 H                    1.0000    -6.87778298     0.34413231     0.42427450
  107 H                    1.0000    -5.93339668     3.47421974    -0.99608328
  108 H                    1.0000    -2.04003300    -2.12285845     0.69389039
  109 H                    1.0000    -0.13400757    -2.16348227     3.15177195
  110 H                    1.0000    -0.80171223    -4.54673095     3.39944556
  111 H                    1.0000    -2.97752113    -4.69977305     1.51728650
  112 H                    1.0000    -3.54254213    -4.07375029     3.19655205
  113 H                    1.0000    -2.41217100    -3.89000682     4.66290311
  114 H                    1.0000    -2.79044563    -2.41741849     3.58901582
  115 H                    1.0000     1.55913258    -3.88015498     2.98296358
  116 H                    1.0000     3.21541600    -3.68981930     0.49032591
  117 H                    1.0000     3.16033094    -5.75649504     2.81394937
  118 H                    1.0000     4.56179547    -5.34438817     1.54021075
  119 H                    1.0000     3.51115441    -3.49860809     3.74103861
  120 H                    1.0000     5.75888803    -5.63894037     3.53475164
  121 H                    1.0000     6.20870472    -4.01818573     4.33366614
  122 H                    1.0000     4.81669105    -5.04370746     5.02633859
  123 H                    1.0000     5.41790133    -3.36768015     1.34272356
  124 H                    1.0000     4.62380810    -1.98874947     2.31020644
  125 H                    1.0000     6.17729016    -2.79677591     2.94433243
  126 H                    1.0000     0.65350707    -6.05207985     1.72141026
  127 H                    1.0000     1.39996177    -7.98317112    -0.41697836
  128 H                    1.0000    -0.91536059    -8.97704813    -0.08369939
  129 H                    1.0000    -0.00802026    -8.65381269     1.52130322
  130 H                    1.0000    -2.43076724    -7.49199038     0.38249815
  131 H                    1.0000    -0.56988039    -5.00926393    -0.41251853
  132 H                    1.0000    -2.10083871    -5.56077432    -2.83560435
  133 H                    1.0000    -0.97540677    -2.95103784    -1.69851841
  134 H                    1.0000    -2.04000393    -3.11808251    -3.28938829
  135 H                    1.0000    -2.64583743    -1.59432696    -0.89714086
  136 H                    1.0000     4.77074593     4.78947433    -3.89297770
  137 H                    1.0000    -7.04096955     2.52127785     0.03848770
  138 H                    1.0000     0.79347840    -4.84458727    -3.50310835
 
      Atomic Mass 
      ----------- 
 
      N                 14.003070
      C                 12.000000
      O                 15.994910
      H                  1.007825
 

 Effective nuclear repulsion energy (a.u.)   12317.9737118247

            Nuclear Dipole moment (a.u.) 
            ----------------------------
        X                 Y               Z
 ---------------- ---------------- ----------------
    -0.0000000000    -0.0000000000    -0.0000000000
 
 
            XYZ format geometry
            -------------------
   138
 geometry
 N                     5.15299134     3.86971220    -3.67114875
 C                     4.18890636     3.20441655    -2.77867587
 C                     3.29521147     4.23802746    -2.11313630
 O                     3.81478498     5.25861394    -1.70922962
 C                     4.96425407     2.28970271    -1.82602403
 C                     5.96130510     1.32583476    -2.46932786
 C                     6.51964419     0.36057955    -1.41966657
 C                     5.33388755     0.50013918    -3.56477573
 N                     1.99677421     3.94905098    -2.01228356
 C                     1.05394604     4.92417889    -1.42337728
 C                     0.72646907     4.53251266    -0.00895499
 O                     0.55612723     3.34564163     0.25871236
 C                    -0.19032349     4.92677542    -2.28919978
 C                    -1.41368967     5.74171714    -1.80875917
 C                    -2.10240964     6.42565516    -2.97199628
 O                    -3.15726043     7.02444441    -2.92450680
 O                    -1.36962963     6.26684471    -3.99838008
 N                     0.62698943     5.45628563     0.91389132
 C                     0.40134708     5.23111086     2.33749514
 C                    -0.69655609     4.29419892     2.81087939
 O                    -0.48702033     3.59094972     3.84011810
 C                     0.24612106     6.61743828     3.02993805
 C                     1.58324462     7.29714563     3.24559401
 O                     1.60703237     8.44064657     3.75154732
 O                     2.63802485     6.74665500     2.90064656
 N                    -1.85756278     4.35129802     2.19956184
 C                    -3.03842925     3.55289054     2.57652719
 C                    -3.08876920     2.16223152     2.03818771
 O                    -3.94648158     1.34670783     2.44689370
 N                    -2.19490372     1.78559933     1.13099771
 C                    -2.13366323     0.40529186     0.60864736
 C                    -1.28458728    -0.42173904     1.56221954
 O                    -0.49947014     0.13400138     2.36054445
 C                    -1.50682958     0.34745229    -0.78627850
 C                    -2.20707930     1.24124810    -1.82986289
 C                    -3.56671095     0.54604181    -2.12758082
 N                    -4.56804878     1.46394329    -1.63255615
 C                    -5.59059862     1.38882804    -0.83813401
 N                    -6.00942791     0.30042027    -0.22059815
 N                    -6.25983464     2.53889697    -0.55977882
 N                    -1.35453419    -1.72276846     1.43090353
 C                    -0.55505673    -2.68124427     2.22723633
 C                     0.56379439    -3.20832059     1.29786464
 O                     0.50137274    -3.02426003     0.08664903
 C                    -1.42499379    -3.87666701     2.72066105
 O                    -1.90542757    -4.46803244     1.43657292
 C                    -2.61629548    -3.54390563     3.59652927
 N                     1.55963704    -3.82358600     1.90148695
 C                     2.67398167    -4.43765677     1.15920256
 C                     2.10295904    -5.53020887     0.25918809
 O                     2.52555423    -5.62826045    -0.86078387
 C                     3.69684500    -4.97314948     2.18343895
 C                     4.35440838    -3.99112033     3.15242716
 C                     5.34902647    -4.71987924     4.07085532
 C                     5.19670244    -2.97150603     2.38896308
 N                     1.06758821    -6.24866737     0.74122091
 C                     0.51931590    -7.31978788    -0.12785638
 C                    -0.08296309    -6.76943884    -1.40156041
 O                    -0.05562342    -7.45248923    -2.46947038
 C                    -0.51418619    -8.17405680     0.61981537
 O                    -1.57879691    -7.38461163     1.06966796
 N                    -0.59574062    -5.55352563    -1.34793900
 C                    -1.20816960    -4.91432301    -2.54297907
 C                    -0.21665704    -4.88783149    -3.71031195
 O                    -0.58053426    -4.91601975    -4.88959045
 C                    -1.76989385    -3.54024817    -2.26587586
 C                    -3.04334001    -3.47269411    -1.46549511
 O                    -3.31167982    -2.42315482    -0.85100749
 O                    -3.76836932    -4.51633270    -1.49217837
 H                     6.16716235     4.02210803    -3.32298544
 H                     3.46735962     2.53150423    -3.34986524
 H                     5.54165556     2.95359883    -1.10147282
 H                     4.17728694     1.62736282    -1.33422874
 H                     6.78878665     1.96973586    -2.91688977
 H                     5.66042861    -0.20060844    -0.92302825
 H                     7.21935806    -0.38498493    -1.92317338
 H                     7.09491995     0.94885727    -0.63082430
 H                     4.22915516     0.34023622    -3.33469663
 H                     5.44017379     1.04603486    -4.56009786
 H                     5.85953760    -0.51000101    -3.62692726
 H                     1.63004254     2.99337280    -2.36415870
 H                     1.50963649     5.96848854    -1.39012699
 H                     0.10900546     5.33654710    -3.30945727
 H                    -0.54768615     3.84519017    -2.27257847
 H                    -2.15248267     5.03909987    -1.29866126
 H                    -1.05391151     6.54064784    -1.07903634
 H                    -0.45555571     5.72801514    -3.92114303
 H                     0.72133001     6.48513620     0.58987379
 H                     1.32609852     4.63844219     2.64131848
 H                    -0.40486265     7.28502982     2.37420736
 H                    -0.23236360     6.44961780     4.05111518
 H                     0.69785641     8.92092788     4.02370705
 H                    -1.95456956     5.03110697     1.36236683
 H                    -3.06578649     3.48761207     3.71394193
 H                    -3.93180750     4.09198803     2.11753023
 H                    -1.48601831     2.51616759     0.76129310
 H                    -3.19581822     0.00016622     0.52980575
 H                    -0.41906021     0.67863187    -0.70384748
 H                    -1.61374187    -0.72713468    -1.14984088
 H                    -2.37823273     2.28644909    -1.40876861
 H                    -1.57805337     1.36265287    -2.77311114
 H                    -3.69448109     0.37800454    -3.24752380
 H                    -3.64188753    -0.47909842    -1.63543247
 H                    -4.43026203     2.46468563    -2.02241711
 H                    -5.48464539    -0.63620148    -0.35919107
 H                    -6.87778298     0.34413231     0.42427450
 H                    -5.93339668     3.47421974    -0.99608328
 H                    -2.04003300    -2.12285845     0.69389039
 H                    -0.13400757    -2.16348227     3.15177195
 H                    -0.80171223    -4.54673095     3.39944556
 H                    -2.97752113    -4.69977305     1.51728650
 H                    -3.54254213    -4.07375029     3.19655205
 H                    -2.41217100    -3.89000682     4.66290311
 H                    -2.79044563    -2.41741849     3.58901582
 H                     1.55913258    -3.88015498     2.98296358
 H                     3.21541600    -3.68981930     0.49032591
 H                     3.16033094    -5.75649504     2.81394937
 H                     4.56179547    -5.34438817     1.54021075
 H                     3.51115441    -3.49860809     3.74103861
 H                     5.75888803    -5.63894037     3.53475164
 H                     6.20870472    -4.01818573     4.33366614
 H                     4.81669105    -5.04370746     5.02633859
 H                     5.41790133    -3.36768015     1.34272356
 H                     4.62380810    -1.98874947     2.31020644
 H                     6.17729016    -2.79677591     2.94433243
 H                     0.65350707    -6.05207985     1.72141026
 H                     1.39996177    -7.98317112    -0.41697836
 H                    -0.91536059    -8.97704813    -0.08369939
 H                    -0.00802026    -8.65381269     1.52130322
 H                    -2.43076724    -7.49199038     0.38249815
 H                    -0.56988039    -5.00926393    -0.41251853
 H                    -2.10083871    -5.56077432    -2.83560435
 H                    -0.97540677    -2.95103784    -1.69851841
 H                    -2.04000393    -3.11808251    -3.28938829
 H                    -2.64583743    -1.59432696    -0.89714086
 H                     4.77074593     4.78947433    -3.89297770
 H                    -7.04096955     2.52127785     0.03848770
 H                     0.79347840    -4.84458727    -3.50310835
 
 ==============================================================================
                                internuclear distances
 ------------------------------------------------------------------------------
       center one      |      center two      | atomic units |  angstroms
 ------------------------------------------------------------------------------
    2 C                |   1 N                |     2.78283  |     1.47261
    3 C                |   2 C                |     2.87213  |     1.51986
    4 O                |   3 C                |     2.29483  |     1.21437
    5 C                |   2 C                |     2.89407  |     1.53147
    6 C                |   5 C                |     2.88887  |     1.52872
    7 C                |   6 C                |     2.89397  |     1.53142
    8 C                |   6 C                |     2.85056  |     1.50845
    9 N                |   3 C                |     2.52094  |     1.33402
   10 C                |   9 N                |     2.79437  |     1.47872
   11 C                |  10 C                |     2.84166  |     1.50374
   12 O                |  11 C                |     2.32162  |     1.22855
   13 C                |  10 C                |     2.86458  |     1.51587
   14 C                |  13 C                |     2.92241  |     1.54647
   15 C                |  14 C                |     2.86294  |     1.51500
   16 O                |  15 C                |     2.29391  |     1.21388
   17 O                |  15 C                |     2.40200  |     1.27108
   18 N                |  11 C                |     2.47467  |     1.30954
   19 C                |  18 N                |     2.75684  |     1.45886
   20 C                |  19 C                |     2.87045  |     1.51898
   21 O                |  20 C                |     2.38869  |     1.26404
   22 C                |  19 C                |     2.94305  |     1.55739
   23 C                |  22 C                |     2.86367  |     1.51539
   24 O                |  23 C                |     2.36340  |     1.25066
   25 O                |  23 C                |     2.34097  |     1.23879
   26 N                |  20 C                |     2.48188  |     1.31336
   27 C                |  26 N                |     2.78631  |     1.47445
   28 C                |  27 C                |     2.81961  |     1.49207
   29 O                |  28 C                |     2.36615  |     1.25211
   30 N                |  28 C                |     2.50974  |     1.32810
   31 C                |  30 N                |     2.79133  |     1.47711
   32 C                |  31 C                |     2.87475  |     1.52125
   33 O                |  32 C                |     2.36222  |     1.25003
   34 C                |  31 C                |     2.89201  |     1.53039
   35 C                |  34 C                |     2.91428  |     1.54217
   36 C                |  35 C                |     2.94006  |     1.55581
   37 N                |  36 C                |     2.73212  |     1.44578
   38 C                |  37 N                |     2.45108  |     1.29706
   39 N                |  38 C                |     2.49372  |     1.31962
   40 N                |  38 C                |     2.56893  |     1.35942
   41 N                |  32 C                |     2.47461  |     1.30951
   42 C                |  41 N                |     2.79781  |     1.48054
   43 C                |  42 C                |     2.92350  |     1.54705
   44 O                |  43 C                |     2.31815  |     1.22671
   45 C                |  42 C                |     2.94536  |     1.55862
   46 O                |  45 C                |     2.82159  |     1.49312
   47 C                |  45 C                |     2.86409  |     1.51561
   48 N                |  43 C                |     2.48886  |     1.31705
   49 C                |  48 N                |     2.78363  |     1.47304
   50 C                |  49 C                |     2.88439  |     1.52636
   51 O                |  50 C                |     2.26967  |     1.20106
   52 C                |  49 C                |     2.91659  |     1.54339
   53 C                |  52 C                |     2.88807  |     1.52830
   54 C                |  53 C                |     2.90543  |     1.53749
   55 C                |  53 C                |     2.88575  |     1.52707
   56 N                |  50 C                |     2.54975  |     1.34927
   57 C                |  56 N                |     2.80495  |     1.48432
   58 C                |  57 C                |     2.85839  |     1.51260
   59 O                |  58 C                |     2.39611  |     1.26797
   60 C                |  57 C                |     2.90115  |     1.53522
   61 O                |  60 C                |     2.64493  |     1.39964
   62 N                |  58 C                |     2.49577  |     1.32070
   63 C                |  62 N                |     2.81040  |     1.48720
   64 C                |  63 C                |     2.89472  |     1.53182
   65 O                |  64 C                |     2.33280  |     1.23446
   66 C                |  63 C                |     2.85368  |     1.51010
   67 C                |  66 C                |     2.84518  |     1.50560
   68 O                |  67 C                |     2.35355  |     1.24545
   69 O                |  67 C                |     2.40193  |     1.27105
   70 H                |   1 N                |     2.04666  |     1.08304
   71 H                |   2 C                |     2.15437  |     1.14004
   72 H                |   5 C                |     2.15389  |     1.13979
   73 H                |   5 C                |     2.15451  |     1.14012
   74 H                |   6 C                |     2.15433  |     1.14002
   75 H                |   7 C                |     2.15448  |     1.14010
   76 H                |   7 C                |     2.15378  |     1.13973
   77 H                |   7 C                |     2.15403  |     1.13986
   78 H                |   8 C                |     2.15374  |     1.13971
   79 H                |   8 C                |     2.15459  |     1.14016
   80 H                |   8 C                |     2.15508  |     1.14042
   81 H                |   9 N                |     2.04547  |     1.08242
   82 H                |  10 C                |     2.15407  |     1.13989
   83 H                |  13 C                |     2.15332  |     1.13949
   84 H                |  13 C                |     2.15280  |     1.13922
   85 H                |  14 C                |     2.15436  |     1.14004
   86 H                |  14 C                |     2.15481  |     1.14027
   87 H                |  17 O                |     2.01044  |     1.06388
   88 H                |  18 N                |     2.04616  |     1.08278
   89 H                |  19 C                |     2.15357  |     1.13962
   90 H                |  22 C                |     2.15416  |     1.13993
   91 H                |  22 C                |     2.15455  |     1.14014
   92 H                |  24 O                |     2.01000  |     1.06365
   93 H                |  26 N                |     2.04619  |     1.08280
   94 H                |  27 C                |     2.15356  |     1.13961
   95 H                |  27 C                |     2.15415  |     1.13992
   96 H                |  30 N                |     2.04661  |     1.08302
   97 H                |  31 C                |     2.15339  |     1.13952
   98 H                |  34 C                |     2.15438  |     1.14005
   99 H                |  34 C                |     2.15325  |     1.13945
  100 H                |  35 C                |     2.15384  |     1.13976
  101 H                |  35 C                |     2.15473  |     1.14023
  102 H                |  36 C                |     2.15365  |     1.13966
  103 H                |  36 C                |     2.15360  |     1.13964
  104 H                |  37 N                |     2.04620  |     1.08280
  105 H                |  39 N                |     2.04568  |     1.08253
  106 H                |  39 N                |     2.04563  |     1.08250
  107 H                |  40 N                |     2.04558  |     1.08247
  108 H                |  41 N                |     2.04682  |     1.08313
  109 H                |  42 C                |     2.15472  |     1.14023
  110 H                |  45 C                |     2.15314  |     1.13939
  112 H                |  47 C                |     2.15350  |     1.13958
  113 H                |  47 C                |     2.15346  |     1.13956
  114 H                |  47 C                |     2.15409  |     1.13989
  115 H                |  48 N                |     2.04649  |     1.08296
  116 H                |  49 C                |     2.15446  |     1.14009
  117 H                |  52 C                |     2.15381  |     1.13975
  118 H                |  52 C                |     2.15437  |     1.14004
  119 H                |  53 C                |     2.15471  |     1.14022
  120 H                |  54 C                |     2.15467  |     1.14020
  121 H                |  54 C                |     2.15503  |     1.14039
  122 H                |  54 C                |     2.15561  |     1.14070
  123 H                |  55 C                |     2.15503  |     1.14039
  124 H                |  55 C                |     2.15480  |     1.14027
  125 H                |  55 C                |     2.15505  |     1.14040
  126 H                |  56 N                |     2.04482  |     1.08207
  127 H                |  57 C                |     2.15396  |     1.13983
  128 H                |  60 C                |     2.15517  |     1.14047
  129 H                |  60 C                |     2.15383  |     1.13976
  131 H                |  62 N                |     2.04571  |     1.08254
  132 H                |  63 C                |     2.15494  |     1.14035
  133 H                |  66 C                |     2.15485  |     1.14030
  134 H                |  66 C                |     2.15359  |     1.13963
  135 H                |  68 O                |     2.01097  |     1.06416
  136 H                |   1 N                |     1.92834  |     1.02043
  137 H                |  40 N                |     1.85963  |     0.98408
  138 H                |  64 C                |     1.95034  |     1.03207
 ------------------------------------------------------------------------------
                         number of included internuclear distances:        135
 ==============================================================================



 ==============================================================================
                                 internuclear angles
 ------------------------------------------------------------------------------
        center 1       |       center 2       |       center 3       |  degrees
 ------------------------------------------------------------------------------
    2 C                |   1 N                |  70 H                |   118.80
    2 C                |   1 N                | 136 H                |   107.08
   70 H                |   1 N                | 136 H                |   107.09
    1 N                |   2 C                |   3 C                |   110.07
    1 N                |   2 C                |   5 C                |   108.38
    1 N                |   2 C                |  71 H                |   112.17
    3 C                |   2 C                |   5 C                |   115.56
    3 C                |   2 C                |  71 H                |   104.40
    5 C                |   2 C                |  71 H                |   106.23
    2 C                |   3 C                |   4 O                |   117.75
    2 C                |   3 C                |   9 N                |   117.27
    4 O                |   3 C                |   9 N                |   124.98
    2 C                |   5 C                |   6 C                |   116.42
    2 C                |   5 C                |  72 H                |   107.70
    2 C                |   5 C                |  73 H                |   105.42
    6 C                |   5 C                |  72 H                |   107.72
    6 C                |   5 C                |  73 H                |   105.39
   72 H                |   5 C                |  73 H                |   114.45
    5 C                |   6 C                |   7 C                |   110.29
    5 C                |   6 C                |   8 C                |   112.30
    5 C                |   6 C                |  74 H                |   106.41
    7 C                |   6 C                |   8 C                |   107.72
    7 C                |   6 C                |  74 H                |   111.13
    8 C                |   6 C                |  74 H                |   109.02
    6 C                |   7 C                |  75 H                |   109.52
    6 C                |   7 C                |  76 H                |   109.47
    6 C                |   7 C                |  77 H                |   109.45
   75 H                |   7 C                |  76 H                |   109.46
   75 H                |   7 C                |  77 H                |   109.45
   76 H                |   7 C                |  77 H                |   109.48
    6 C                |   8 C                |  78 H                |   109.47
    6 C                |   8 C                |  79 H                |   109.46
    6 C                |   8 C                |  80 H                |   109.43
   78 H                |   8 C                |  79 H                |   109.50
   78 H                |   8 C                |  80 H                |   109.48
   79 H                |   8 C                |  80 H                |   109.48
    3 C                |   9 N                |  10 C                |   120.52
    3 C                |   9 N                |  81 H                |   119.77
   10 C                |   9 N                |  81 H                |   119.71
    9 N                |  10 C                |  11 C                |   109.98
    9 N                |  10 C                |  13 C                |   107.28
    9 N                |  10 C                |  82 H                |   111.15
   11 C                |  10 C                |  13 C                |   111.03
   11 C                |  10 C                |  82 H                |   107.35
   13 C                |  10 C                |  82 H                |   110.07
   10 C                |  11 C                |  12 O                |   119.13
   10 C                |  11 C                |  18 N                |   119.71
   12 O                |  11 C                |  18 N                |   121.16
   10 C                |  13 C                |  14 C                |   118.22
   10 C                |  13 C                |  83 H                |   107.24
   10 C                |  13 C                |  84 H                |   104.33
   14 C                |  13 C                |  83 H                |   107.25
   14 C                |  13 C                |  84 H                |   104.34
   83 H                |  13 C                |  84 H                |   115.91
   13 C                |  14 C                |  15 C                |   111.04
   13 C                |  14 C                |  85 H                |   109.08
   13 C                |  14 C                |  86 H                |   108.57
   15 C                |  14 C                |  85 H                |   109.10
   15 C                |  14 C                |  86 H                |   108.57
   85 H                |  14 C                |  86 H                |   110.48
   14 C                |  15 C                |  16 O                |   125.99
   14 C                |  15 C                |  17 O                |   107.55
   16 O                |  15 C                |  17 O                |   126.46
   15 C                |  17 O                |  87 H                |   120.00
   11 C                |  18 N                |  19 C                |   126.20
   11 C                |  18 N                |  88 H                |   116.92
   19 C                |  18 N                |  88 H                |   116.88
   18 N                |  19 C                |  20 C                |   120.74
   18 N                |  19 C                |  22 C                |   108.17
   18 N                |  19 C                |  89 H                |   102.41
   20 C                |  19 C                |  22 C                |   109.78
   20 C                |  19 C                |  89 H                |   100.52
   22 C                |  19 C                |  89 H                |   115.17
   19 C                |  20 C                |  21 O                |   118.50
   19 C                |  20 C                |  26 N                |   117.84
   21 O                |  20 C                |  26 N                |   123.35
   19 C                |  22 C                |  23 C                |   112.00
   19 C                |  22 C                |  90 H                |   108.81
   19 C                |  22 C                |  91 H                |   108.00
   23 C                |  22 C                |  90 H                |   108.85
   23 C                |  22 C                |  91 H                |   107.99
   90 H                |  22 C                |  91 H                |   111.21
   22 C                |  23 C                |  24 O                |   118.98
   22 C                |  23 C                |  25 O                |   120.82
   24 O                |  23 C                |  25 O                |   120.18
   23 C                |  24 O                |  92 H                |   120.01
   20 C                |  26 N                |  27 C                |   124.43
   20 C                |  26 N                |  93 H                |   117.80
   27 C                |  26 N                |  93 H                |   117.77
   26 N                |  27 C                |  28 C                |   116.07
   26 N                |  27 C                |  94 H                |   107.78
   26 N                |  27 C                |  95 H                |   105.58
   28 C                |  27 C                |  94 H                |   107.81
   28 C                |  27 C                |  95 H                |   105.61
   94 H                |  27 C                |  95 H                |   114.21
   27 C                |  28 C                |  29 O                |   120.82
   27 C                |  28 C                |  30 N                |   119.21
   29 O                |  28 C                |  30 N                |   119.95
   28 C                |  30 N                |  31 C                |   122.31
   28 C                |  30 N                |  96 H                |   118.84
   31 C                |  30 N                |  96 H                |   118.85
   30 N                |  31 C                |  32 C                |   108.03
   30 N                |  31 C                |  34 C                |   112.00
   30 N                |  31 C                |  97 H                |   108.54
   32 C                |  31 C                |  34 C                |   108.80
   32 C                |  31 C                |  97 H                |   111.74
   34 C                |  31 C                |  97 H                |   107.78
   31 C                |  32 C                |  33 O                |   120.61
   31 C                |  32 C                |  41 N                |   116.58
   33 O                |  32 C                |  41 N                |   122.64
   31 C                |  34 C                |  35 C                |   114.14
   31 C                |  34 C                |  98 H                |   108.30
   31 C                |  34 C                |  99 H                |   106.74
   35 C                |  34 C                |  98 H                |   108.29
   35 C                |  34 C                |  99 H                |   106.74
   98 H                |  34 C                |  99 H                |   112.74
   34 C                |  35 C                |  36 C                |   105.51
   34 C                |  35 C                | 100 H                |   110.47
   34 C                |  35 C                | 101 H                |   111.78
   36 C                |  35 C                | 100 H                |   110.44
   36 C                |  35 C                | 101 H                |   111.80
  100 H                |  35 C                | 101 H                |   106.91
   35 C                |  36 C                |  37 N                |   104.84
   35 C                |  36 C                | 102 H                |   110.60
   35 C                |  36 C                | 103 H                |   112.15
   37 N                |  36 C                | 102 H                |   110.64
   37 N                |  36 C                | 103 H                |   112.18
  102 H                |  36 C                | 103 H                |   106.52
   36 C                |  37 N                |  38 C                |   135.97
   36 C                |  37 N                | 104 H                |   112.05
   38 C                |  37 N                | 104 H                |   111.99
   37 N                |  38 C                |  39 N                |   125.77
   37 N                |  38 C                |  40 N                |   117.68
   39 N                |  38 C                |  40 N                |   116.47
   38 C                |  39 N                | 105 H                |   119.99
   38 C                |  39 N                | 106 H                |   120.00
  105 H                |  39 N                | 106 H                |   120.01
   38 C                |  40 N                | 107 H                |   120.00
   38 C                |  40 N                | 137 H                |   120.01
  107 H                |  40 N                | 137 H                |   119.99
   32 C                |  41 N                |  42 C                |   124.08
   32 C                |  41 N                | 108 H                |   117.97
   42 C                |  41 N                | 108 H                |   117.94
   41 N                |  42 C                |  43 C                |   106.74
   41 N                |  42 C                |  45 C                |   111.43
   41 N                |  42 C                | 109 H                |   109.97
   43 C                |  42 C                |  45 C                |   109.42
   43 C                |  42 C                | 109 H                |   112.01
   45 C                |  42 C                | 109 H                |   107.32
   42 C                |  43 C                |  44 O                |   120.35
   42 C                |  43 C                |  48 N                |   115.51
   44 O                |  43 C                |  48 N                |   124.13
   42 C                |  45 C                |  46 O                |   102.19
   42 C                |  45 C                |  47 C                |   116.95
   42 C                |  45 C                | 110 H                |   109.53
   46 O                |  45 C                |  47 C                |   109.33
   46 O                |  45 C                | 110 H                |   117.09
   47 C                |  45 C                | 110 H                |   102.40
   45 C                |  47 C                | 112 H                |   109.51
   45 C                |  47 C                | 113 H                |   109.47
   45 C                |  47 C                | 114 H                |   109.47
  112 H                |  47 C                | 113 H                |   109.44
  112 H                |  47 C                | 114 H                |   109.45
  113 H                |  47 C                | 114 H                |   109.49
   43 C                |  48 N                |  49 C                |   122.40
   43 C                |  48 N                | 115 H                |   118.80
   49 C                |  48 N                | 115 H                |   118.80
   48 N                |  49 C                |  50 C                |   108.21
   48 N                |  49 C                |  52 C                |   108.15
   48 N                |  49 C                | 116 H                |   112.42
   50 C                |  49 C                |  52 C                |   113.01
   50 C                |  49 C                | 116 H                |   107.53
   52 C                |  49 C                | 116 H                |   107.59
   49 C                |  50 C                |  51 O                |   118.47
   49 C                |  50 C                |  56 N                |   117.23
   51 O                |  50 C                |  56 N                |   124.03
   49 C                |  52 C                |  53 C                |   118.88
   49 C                |  52 C                | 117 H                |   107.07
   49 C                |  52 C                | 118 H                |   103.97
   53 C                |  52 C                | 117 H                |   107.06
   53 C                |  52 C                | 118 H                |   103.92
  117 H                |  52 C                | 118 H                |   116.45
   52 C                |  53 C                |  54 C                |   110.64
   52 C                |  53 C                |  55 C                |   110.45
   52 C                |  53 C                | 119 H                |   106.66
   54 C                |  53 C                |  55 C                |   104.97
   54 C                |  53 C                | 119 H                |   112.01
   55 C                |  53 C                | 119 H                |   112.19
   53 C                |  54 C                | 120 H                |   109.50
   53 C                |  54 C                | 121 H                |   109.49
   53 C                |  54 C                | 122 H                |   109.45
  120 H                |  54 C                | 121 H                |   109.47
  120 H                |  54 C                | 122 H                |   109.44
  121 H                |  54 C                | 122 H                |   109.48
   53 C                |  55 C                | 123 H                |   109.49
   53 C                |  55 C                | 124 H                |   109.44
   53 C                |  55 C                | 125 H                |   109.46
  123 H                |  55 C                | 124 H                |   109.48
  123 H                |  55 C                | 125 H                |   109.46
  124 H                |  55 C                | 125 H                |   109.49
   50 C                |  56 N                |  57 C                |   117.29
   50 C                |  56 N                | 126 H                |   121.37
   57 C                |  56 N                | 126 H                |   121.34
   56 N                |  57 C                |  58 C                |   112.18
   56 N                |  57 C                |  60 C                |   111.41
   56 N                |  57 C                | 127 H                |   106.45
   58 C                |  57 C                |  60 C                |   110.15
   58 C                |  57 C                | 127 H                |   107.81
   60 C                |  57 C                | 127 H                |   108.65
   57 C                |  58 C                |  59 O                |   120.31
   57 C                |  58 C                |  62 N                |   117.09
   59 O                |  58 C                |  62 N                |   122.58
   57 C                |  60 C                |  61 O                |   110.78
   57 C                |  60 C                | 128 H                |   109.16
   57 C                |  60 C                | 129 H                |   108.69
   61 O                |  60 C                | 128 H                |   109.14
   61 O                |  60 C                | 129 H                |   108.72
  128 H                |  60 C                | 129 H                |   110.35
   58 C                |  62 N                |  63 C                |   121.53
   58 C                |  62 N                | 131 H                |   119.25
   63 C                |  62 N                | 131 H                |   119.22
   62 N                |  63 C                |  64 C                |   110.69
   62 N                |  63 C                |  66 C                |   113.38
   62 N                |  63 C                | 132 H                |   106.55
   64 C                |  63 C                |  66 C                |   111.40
   64 C                |  63 C                | 132 H                |   108.72
   66 C                |  63 C                | 132 H                |   105.77
   63 C                |  64 C                |  65 O                |   122.47
   63 C                |  64 C                | 138 H                |   118.77
   65 O                |  64 C                | 138 H                |   118.77
   63 C                |  66 C                |  67 C                |   116.94
   63 C                |  66 C                | 133 H                |   107.60
   63 C                |  66 C                | 134 H                |   105.10
   67 C                |  66 C                | 133 H                |   107.55
   67 C                |  66 C                | 134 H                |   105.09
  133 H                |  66 C                | 134 H                |   114.87
   66 C                |  67 C                |  68 O                |   118.84
   66 C                |  67 C                |  69 O                |   115.75
   68 O                |  67 C                |  69 O                |   125.41
   67 C                |  68 O                | 135 H                |   120.01
 ------------------------------------------------------------------------------
                            number of included internuclear angles:        240
 ==============================================================================



          ****************************************************
          *                                                  *
          *               NWPW PSPW Calculation              *
          *                                                  *
          * [ (Grassmann/Stiefel manifold implementation)  ] *
          *                                                  *
          *      [ NorthWest Chemistry implementation ]      *
          *                                                  *
          *            version #5.10   06/12/02              *
          *                                                  *
          *    This code was developed by Eric J. Bylaska,   *
          *    and was based upon algorithms and code        *
          *    developed by the group of Prof. John H. Weare *
          *                                                  *
          ****************************************************
     >>>  JOB STARTED       AT Thu Jan  4 01:14:39 2018  <<<
          ================ input data ========================
  library name resolved from: environment
  NWCHEM_NWPW_LIBRARY set to: <
 /sw/xk6/nwchem/6.6/sles11.3_pgi15.7.0/src/nwpw/libraryps/>
 Generating 1d pseudopotential for N   
 
 Generated formatted_filename: 
 /lustre/atlas/scratch/hjjvd/csc249/.3808944/N.vpp
  library name resolved from: environment
  NWCHEM_NWPW_LIBRARY set to: <
 /sw/xk6/nwchem/6.6/sles11.3_pgi15.7.0/src/nwpw/libraryps/>
 Generating 1d pseudopotential for C   
 
 Generated formatted_filename: 
 /lustre/atlas/scratch/hjjvd/csc249/.3808944/C.vpp
  library name resolved from: environment
  NWCHEM_NWPW_LIBRARY set to: <
 /sw/xk6/nwchem/6.6/sles11.3_pgi15.7.0/src/nwpw/libraryps/>
 Generating 1d pseudopotential for O   
 
 Generated formatted_filename: 
 /lustre/atlas/scratch/hjjvd/csc249/.3808944/O.vpp
  library name resolved from: environment
  NWCHEM_NWPW_LIBRARY set to: <
 /sw/xk6/nwchem/6.6/sles11.3_pgi15.7.0/src/nwpw/libraryps/>
 Generating 1d pseudopotential for H   
 
 Generated formatted_filename: 
 /lustre/atlas/scratch/hjjvd/csc249/.3808944/H.vpp
 random planewave guess, initial psi:
 nwc_pweg_dat.movecs                               
 -   spin, nalpha, nbeta:                        1                      195 
                        0

 input psi filename:/lustre/atlas/scratch/hjjvd/csc249/.3808944/nwc_pweg_dat.movecs
 Warning - Gram-Schmidt being performed on psi:    195.0000000000000      
    124.6726516554432         195.0000000000000         70.32734834455682     

 number of processors used:      2048
 processor grid           :  64 x  32
 parallel mapping         :2d hilbert
 parallel mapping         :  balanced
 number of threads        :         1
 parallel io              :       off

 options:
      boundary conditions  = aperiodic   (version4)
      electron spin        = restricted
      exchange-correlation = PBE96 (White and Bird) parameterization

 elements involved in the cluster:
      1: N   valence charge:  5.0000  lmax=  2
             comment    : Hamann pseudopotential
             pseudpotential type            :   0
             highest angular component      :   2
             local potential used           :   2
             number of non-local projections:   4
             aperiodic cutoff radius        :  1.000
             cutoff =   0.700   0.700   0.700
 
      2: C   valence charge:  4.0000  lmax=  2
             comment    : Parameterized (J.Phys.Chem., vol 100, page 6966) Hamman psp
             pseudpotential type            :   0
             highest angular component      :   2
             local potential used           :   2
             number of non-local projections:   4
             aperiodic cutoff radius        :  1.000
             cutoff =   0.800   0.850   0.850
 
      3: O   valence charge:  6.0000  lmax=  2
             comment    : Parameterized (Chem.Phys.Lett., vol 322, page 447) Hamman psp
             pseudpotential type            :   0
             highest angular component      :   2
             local potential used           :   2
             number of non-local projections:   4
             aperiodic cutoff radius        :  1.000
             cutoff =   0.700   0.700   0.700
 
      4: H   valence charge:  1.0000  lmax=  1
             comment    : Parameterized (Chem.Phys.Lett., vol 322, page 447) Hamman psp
             pseudpotential type            :   0
             highest angular component      :   1
             local potential used           :   1
             number of non-local projections:   1
             aperiodic cutoff radius        :  1.000
             cutoff =   0.800   0.800
 

 total charge:   1.000

 atomic composition:
     N   :   12     C   :   40     O   :   17     H   :   69

 number of electrons: spin up=   195 (   7 per task)  down=   195 (   7 per task) (Fourier space)
 number of orbitals : spin up=   195 (   7 per task)  down=   195 (   7 per task) (Fourier space)

 supercell:
      cell_name:  cell_default                                      
      lattice:    a1=<  26.000   0.000   0.000 >
                  a2=<   0.000  25.000   0.000 >
                  a3=<   0.000   0.000  27.000 >
      reciprocal: b1=<   0.242   0.000  -0.000 >
                  b2=<  -0.000   0.251  -0.000 >
                  b3=<   0.000   0.000   0.233 >
      lattice:    a=      26.000 b=     25.000 c=      27.000
                  alpha=  90.000 beta=  90.000 gamma=  90.000
                  omega=     17550.0

      density cutoff= 50.000  fft= 84x 84x 90(   148273 waves     2316 per task)
      wavefnc cutoff= 25.000  fft= 84x 84x 90(    52380 waves      818 per task)

 technical parameters:
      time step=      5.80     fictitious mass=  400000.0
      tolerance=0.100E-06 (energy)   0.100E-06 (density)
      maximum iterations =      1000 (   10 inner    100 outer )





== Energy Calculation ==


          ============ Grassmann lmbfgs iteration ============
     >>>  ITERATION STARTED AT Thu Jan  4 01:15:43 2018  <<<
    iter.           Energy         DeltaE       DeltaRho 
    ------------------------------------------------------
     -  15 steepest descent iterations performed
      10   -0.4369641041E+03   -0.75421E+01    0.45395E+02
     -  10 steepest descent iterations performed
      20   -0.4654992484E+03   -0.70647E+00    0.35457E+00
     -  10 steepest descent iterations performed
      30   -0.4690303340E+03   -0.12664E+00    0.38625E-01
     -  10 steepest descent iterations performed
      40   -0.4698005084E+03   -0.37420E-01    0.62969E-02
     -  10 steepest descent iterations performed
      50   -0.4700556790E+03   -0.14854E-01    0.16075E-02
     -  10 steepest descent iterations performed
      60   -0.4701626664E+03   -0.66992E-02    0.64064E-03
      70   -0.4702471734E+03   -0.25879E-02    0.11952E-02
      80   -0.4702757709E+03   -0.19329E-02    0.63708E-03
      90   -0.4702879518E+03   -0.11087E-02    0.19546E-03
     100   -0.4702970815E+03   -0.53887E-03    0.19498E-03
     110   -0.4703022663E+03   -0.57453E-03    0.12952E-03
     -  10 steepest descent iterations performed
     120   -0.4703054594E+03   -0.24733E-03    0.20432E-04
     130   -0.4703088397E+03   -0.29595E-03    0.87362E-04
     -  10 steepest descent iterations performed
     140   -0.4703106211E+03   -0.15622E-03    0.14566E-04
     150   -0.4703123863E+03   -0.16656E-03    0.44307E-04
     -  10 steepest descent iterations performed
     160   -0.4703139360E+03   -0.13938E-03    0.10640E-04
     170   -0.4703154095E+03   -0.14666E-03    0.36659E-04
     -  10 steepest descent iterations performed
     180   -0.4703168789E+03   -0.13014E-03    0.11402E-04
     190   -0.4703182410E+03   -0.13145E-03    0.33738E-04
     -  10 steepest descent iterations performed
     200   -0.4703196525E+03   -0.12610E-03    0.10246E-04
     210   -0.4703208863E+03   -0.11922E-03    0.29749E-04
     220   -0.4703265736E+03   -0.25157E-03    0.71602E-03
     -  10 steepest descent iterations performed
     230   -0.4703279478E+03   -0.58523E-04    0.18815E-04
     240   -0.4703282804E+03   -0.13700E-04    0.43120E-05
     250   -0.4703285209E+03   -0.19635E-04    0.51895E-05
     -  10 steepest descent iterations performed
     260   -0.4703286627E+03   -0.98808E-05    0.11646E-05
     270   -0.4703287736E+03   -0.10532E-04    0.20600E-05
     -  10 steepest descent iterations performed
     280   -0.4703288435E+03   -0.62788E-05    0.51241E-06
     290   -0.4703289065E+03   -0.48200E-05    0.12119E-05
     300   -0.4703290120E+03   -0.61229E-05    0.58051E-05
     -  10 steepest descent iterations performed
     310   -0.4703290557E+03   -0.19373E-05    0.33854E-06
     320   -0.4703290662E+03   -0.68293E-06    0.11325E-06
     330   -0.4703290730E+03   -0.61497E-06    0.10437E-06
     340   -0.4703290905E+03   -0.78214E-06    0.11275E-05
     -  10 steepest descent iterations performed
     350   -0.4703290954E+03   -0.22432E-06    0.22353E-07
     360   -0.4703290968E+03   -0.92906E-07    0.10907E-07
  *** tolerance ok. iteration terminated
     >>>  ITERATION ENDED   AT Thu Jan  4 01:29:44 2018  <<<


==  Summary Of Results  ==
 
 number of electrons: spin up=  195.00000  down=  195.00000 (real space)

 total     energy    :  -0.4703290968E+03 (   -0.34082E+01/ion)
 total orbital energy:  -0.7719656845E+02 (   -0.39588E+00/electron)
 hartree   energy    :   0.7138651005E+04 (    0.36608E+02/electron)
 exc-corr  energy    :  -0.1710882334E+03 (   -0.87738E+00/electron)
 ion-ion   energy    :   0.6694218055E+04 (    0.48509E+02/ion)

 kinetic (planewave) :   0.3988850844E+03 (    0.20456E+01/electron)
 V_local (planewave) :  -0.1451320997E+05 (   -0.74427E+02/electron)
 V_nl    (planewave) :  -0.1778504253E+02 (   -0.91205E-01/electron)
 V_Coul  (planewave) :   0.1427730201E+05 (    0.73217E+02/electron)
 V_xc.   (planewave) :  -0.2223886552E+03 (   -0.11405E+01/electron)
 Virial Coefficient  :  -0.1193530847E+01

 orbital energies:
     0.1858572E+00 (   5.057eV)
     0.1849829E+00 (   5.034eV)
     0.1795076E+00 (   4.885eV)
     0.1755538E+00 (   4.777eV)
     0.1726004E+00 (   4.697eV)
     0.1663232E+00 (   4.526eV)
     0.1626943E+00 (   4.427eV)
     0.1561049E+00 (   4.248eV)
     0.1465045E+00 (   3.987eV)
     0.1376924E+00 (   3.747eV)
     0.1265779E+00 (   3.444eV)
     0.1231454E+00 (   3.351eV)
     0.1148045E+00 (   3.124eV)
     0.1132294E+00 (   3.081eV)
     0.1045181E+00 (   2.844eV)
     0.1020388E+00 (   2.777eV)
     0.1009860E+00 (   2.748eV)
     0.9060705E-01 (   2.466eV)
     0.8874394E-01 (   2.415eV)
     0.8458524E-01 (   2.302eV)
     0.7855049E-01 (   2.137eV)
     0.7572441E-01 (   2.061eV)
     0.7397162E-01 (   2.013eV)
     0.7117572E-01 (   1.937eV)
     0.6848274E-01 (   1.864eV)
     0.6307500E-01 (   1.716eV)
     0.6077938E-01 (   1.654eV)
     0.5823546E-01 (   1.585eV)
     0.5692633E-01 (   1.549eV)
     0.5529119E-01 (   1.505eV)
     0.5246258E-01 (   1.428eV)
     0.4981492E-01 (   1.356eV)
     0.4876839E-01 (   1.327eV)
     0.4581045E-01 (   1.247eV)
     0.4409569E-01 (   1.200eV)
     0.3980785E-01 (   1.083eV)
     0.3698168E-01 (   1.006eV)
     0.3314787E-01 (   0.902eV)
     0.2780429E-01 (   0.757eV)
     0.2525351E-01 (   0.687eV)
     0.2027635E-01 (   0.552eV)
     0.1685138E-01 (   0.459eV)
     0.1503384E-01 (   0.409eV)
     0.9303775E-02 (   0.253eV)
     0.3072018E-02 (   0.084eV)
     0.2396063E-02 (   0.065eV)
     0.4517685E-03 (   0.012eV)
    -0.2986290E-02 (  -0.081eV)
    -0.1175611E-01 (  -0.320eV)
    -0.1409816E-01 (  -0.384eV)
    -0.1954852E-01 (  -0.532eV)
    -0.2107268E-01 (  -0.573eV)
    -0.2636893E-01 (  -0.718eV)
    -0.2958679E-01 (  -0.805eV)
    -0.3118604E-01 (  -0.849eV)
    -0.3514567E-01 (  -0.956eV)
    -0.3626726E-01 (  -0.987eV)
    -0.3969494E-01 (  -1.080eV)
    -0.4089899E-01 (  -1.113eV)
    -0.4537859E-01 (  -1.235eV)
    -0.4813650E-01 (  -1.310eV)
    -0.4970638E-01 (  -1.353eV)
    -0.5463981E-01 (  -1.487eV)
    -0.5548097E-01 (  -1.510eV)
    -0.5767209E-01 (  -1.569eV)
    -0.5840854E-01 (  -1.589eV)
    -0.6111968E-01 (  -1.663eV)
    -0.6258427E-01 (  -1.703eV)
    -0.6760812E-01 (  -1.840eV)
    -0.6988757E-01 (  -1.902eV)
    -0.7268530E-01 (  -1.978eV)
    -0.7435075E-01 (  -2.023eV)
    -0.7622537E-01 (  -2.074eV)
    -0.7738498E-01 (  -2.106eV)
    -0.8026255E-01 (  -2.184eV)
    -0.8324139E-01 (  -2.265eV)
    -0.8383997E-01 (  -2.281eV)
    -0.8655424E-01 (  -2.355eV)
    -0.8842441E-01 (  -2.406eV)
    -0.9171450E-01 (  -2.496eV)
    -0.9655088E-01 (  -2.627eV)
    -0.9780198E-01 (  -2.661eV)
    -0.9853718E-01 (  -2.681eV)
    -0.1029031E+00 (  -2.800eV)
    -0.1052095E+00 (  -2.863eV)
    -0.1065467E+00 (  -2.899eV)
    -0.1075161E+00 (  -2.926eV)
    -0.1096695E+00 (  -2.984eV)
    -0.1106013E+00 (  -3.010eV)
    -0.1145663E+00 (  -3.118eV)
    -0.1157179E+00 (  -3.149eV)
    -0.1189421E+00 (  -3.237eV)
    -0.1193988E+00 (  -3.249eV)
    -0.1234682E+00 (  -3.360eV)
    -0.1282547E+00 (  -3.490eV)
    -0.1290830E+00 (  -3.513eV)
    -0.1314656E+00 (  -3.577eV)
    -0.1320107E+00 (  -3.592eV)
    -0.1362896E+00 (  -3.709eV)
    -0.1385082E+00 (  -3.769eV)
    -0.1401222E+00 (  -3.813eV)
    -0.1426911E+00 (  -3.883eV)
    -0.1456760E+00 (  -3.964eV)
    -0.1475831E+00 (  -4.016eV)
    -0.1496481E+00 (  -4.072eV)
    -0.1501433E+00 (  -4.086eV)
    -0.1545357E+00 (  -4.205eV)
    -0.1584705E+00 (  -4.312eV)
    -0.1650211E+00 (  -4.490eV)
    -0.1705351E+00 (  -4.641eV)
    -0.1746205E+00 (  -4.752eV)
    -0.1762011E+00 (  -4.795eV)
    -0.1777973E+00 (  -4.838eV)
    -0.1803616E+00 (  -4.908eV)
    -0.1843661E+00 (  -5.017eV)
    -0.1892192E+00 (  -5.149eV)
    -0.1929193E+00 (  -5.250eV)
    -0.1956108E+00 (  -5.323eV)
    -0.2046718E+00 (  -5.569eV)
    -0.2060142E+00 (  -5.606eV)
    -0.2135446E+00 (  -5.811eV)
    -0.2142572E+00 (  -5.830eV)
    -0.2158150E+00 (  -5.873eV)
    -0.2280866E+00 (  -6.207eV)
    -0.2294138E+00 (  -6.243eV)
    -0.2309965E+00 (  -6.286eV)
    -0.2349540E+00 (  -6.393eV)
    -0.2375221E+00 (  -6.463eV)
    -0.2436803E+00 (  -6.631eV)
    -0.2459559E+00 (  -6.693eV)
    -0.2498826E+00 (  -6.800eV)
    -0.2625818E+00 (  -7.145eV)
    -0.2670441E+00 (  -7.267eV)
    -0.2711979E+00 (  -7.380eV)
    -0.2761643E+00 (  -7.515eV)
    -0.2781759E+00 (  -7.570eV)
    -0.2837932E+00 (  -7.722eV)
    -0.2906829E+00 (  -7.910eV)
    -0.2982793E+00 (  -8.117eV)
    -0.3048576E+00 (  -8.296eV)
    -0.3126506E+00 (  -8.508eV)
    -0.3156496E+00 (  -8.589eV)
    -0.3239584E+00 (  -8.815eV)
    -0.3288520E+00 (  -8.949eV)
    -0.3311222E+00 (  -9.010eV)
    -0.3393959E+00 (  -9.236eV)
    -0.3461487E+00 (  -9.419eV)
    -0.3559361E+00 (  -9.686eV)
    -0.3689016E+00 ( -10.038eV)
    -0.3717761E+00 ( -10.117eV)
    -0.3840903E+00 ( -10.452eV)
    -0.3913144E+00 ( -10.648eV)
    -0.3933837E+00 ( -10.705eV)
    -0.4055083E+00 ( -11.035eV)
    -0.4088254E+00 ( -11.125eV)
    -0.4123033E+00 ( -11.219eV)
    -0.4177859E+00 ( -11.369eV)
    -0.4221168E+00 ( -11.486eV)
    -0.4301294E+00 ( -11.705eV)
    -0.4406487E+00 ( -11.991eV)
    -0.4563076E+00 ( -12.417eV)
    -0.4761263E+00 ( -12.956eV)
    -0.4794820E+00 ( -13.047eV)
    -0.4905129E+00 ( -13.348eV)
    -0.5178360E+00 ( -14.091eV)
    -0.5251703E+00 ( -14.291eV)
    -0.5262123E+00 ( -14.319eV)
    -0.5381118E+00 ( -14.643eV)
    -0.5461581E+00 ( -14.862eV)
    -0.5504604E+00 ( -14.979eV)
    -0.5576392E+00 ( -15.174eV)
    -0.5626353E+00 ( -15.310eV)
    -0.5659949E+00 ( -15.402eV)
    -0.5716136E+00 ( -15.555eV)
    -0.5874228E+00 ( -15.985eV)
    -0.6139272E+00 ( -16.706eV)
    -0.6231498E+00 ( -16.957eV)
    -0.6310115E+00 ( -17.171eV)
    -0.6328689E+00 ( -17.221eV)
    -0.6351933E+00 ( -17.285eV)
    -0.6442656E+00 ( -17.531eV)
    -0.6466266E+00 ( -17.596eV)
    -0.6569066E+00 ( -17.875eV)
    -0.6573250E+00 ( -17.887eV)
    -0.6699009E+00 ( -18.229eV)
    -0.6835668E+00 ( -18.601eV)
    -0.6922074E+00 ( -18.836eV)
    -0.6997885E+00 ( -19.042eV)
    -0.7058229E+00 ( -19.207eV)
    -0.7641509E+00 ( -20.794eV)
    -0.7800427E+00 ( -21.226eV)
    -0.8217791E+00 ( -22.362eV)
    -0.8815715E+00 ( -23.989eV)
    -0.9642020E+00 ( -26.237eV)
    -0.1032347E+01 ( -28.092eV)

 Total PSPW energy     :  -0.4703290968E+03


=== Spin Contamination ===
 
 <Sexact^2> =     0.000000000000000     
 <S^2>      =     0.000000000000000     
 


== Center of Charge ==

spin up     (    0.0422,    0.2255,   -0.0367 )
spin down   (    0.0422,    0.2255,   -0.0367 )
     total  (    0.0422,    0.2255,   -0.0367 )
ionic       (    0.0094,   -0.0080,    0.0005 )


== Molecular Dipole wrt Center of Mass ==

mu   =  (  -12.7939,  -91.0753,   14.5155 ) au
|mu| =    93.1080 au,     236.6433 Debye

 output psi filename:/lustre/atlas/scratch/hjjvd/csc249/.3808944/nwc_pweg_dat.movecs


== Timing ==

cputime in seconds
  prologue    :   0.638094E+02
  main loop   :   0.843338E+03
  epilogue    :   0.559771E+02
  total       :   0.963124E+03
  cputime/step:   0.865850E+00       (     974 evalulations,     359 linesearches)


Time spent doing                        total          step       percent
  total time                 :   0.967893E+03  0.993730E+00       100.0 %
  i/o time                   :   0.892646E+02  0.916474E-01         9.2 %
  FFTs                       :   0.526440E+02  0.540493E-01         5.4 %
  dot products               :   0.709303E+02  0.728238E-01         7.3 %
  geodesic                   :   0.598032E+03  0.613996E+00        61.8 %
  ffm_dgemm                  :   0.145256E+03  0.149133E+00        15.0 %
  fmf_dgemm                  :   0.456192E+03  0.468369E+00        47.1 %
  mmm_dgemm                  :   0.168673E+02  0.173176E-01         1.7 %
  m_diagonalize              :   0.169204E+02  0.173721E-01         1.7 %
  exchange correlation       :   0.326057E+02  0.334761E-01         3.4 %
  local pseudopotentials     :   0.169899E-01  0.174435E-04         0.0 %
  non-local pseudopotentials :   0.163640E+02  0.168008E-01         1.7 %
  structure factors          :   0.165832E+01  0.170259E-02         0.2 %
  phase factors              :   0.160694E-02  0.164984E-05         0.0 %
  masking and packing        :   0.335142E+01  0.344088E-02         0.3 %
  queue fft                  :   0.210154E+02  0.215763E-01         2.2 %
  queue fft (serial)         :   0.754667E+01  0.774812E-02         0.8 %
  queue fft (message passing):   0.132346E+02  0.135879E-01         1.4 %
  non-local psp FFM          :   0.858957E+01  0.881886E-02         0.9 %
  non-local psp FMF          :   0.570182E+01  0.585403E-02         0.6 %
  non-local psp FFM A        :   0.116276E+01  0.119380E-02         0.1 %
  non-local psp FFM B        :   0.543863E+01  0.558380E-02         0.6 %
 
     >>>  JOB COMPLETED     AT Thu Jan  4 01:30:43 2018  <<<
          ****************************************************
          *                                                  *
          *               NWPW PSPW Calculation              *
          *                                                  *
          * [ (Grassmann/Stiefel manifold implementation)  ] *
          *                                                  *
          *      [ NorthWest Chemistry implementation ]      *
          *                                                  *
          *            version #5.10   06/12/02              *
          *                                                  *
          *    This code was developed by Eric J. Bylaska,   *
          *    and was based upon algorithms and code        *
          *    developed by the group of Prof. John H. Weare *
          *                                                  *
          ****************************************************
     >>>  JOB STARTED       AT Thu Jan  4 01:30:48 2018  <<<
          ================ input data ========================
 pseudopotential is not correctly formatted:
 N.vpp                                             
 
 Generated formatted_filename: 
 /lustre/atlas/scratch/hjjvd/csc249/.3808944/N.vpp
 pseudopotential is not correctly formatted:
 C.vpp                                             
 
 Generated formatted_filename: 
 /lustre/atlas/scratch/hjjvd/csc249/.3808944/C.vpp
 pseudopotential is not correctly formatted:
 O.vpp                                             
 
 Generated formatted_filename: 
 /lustre/atlas/scratch/hjjvd/csc249/.3808944/O.vpp
 pseudopotential is not correctly formatted:
 H.vpp                                             
 
 Generated formatted_filename: 
 /lustre/atlas/scratch/hjjvd/csc249/.3808944/H.vpp
 Error reading psi - bad grid
 nfft :                       84                       84 
                       90
 ngrid:                      120                      120 
                      126
 Error reading psi - bad grid
 nfft :                       84                       84 
                       90
 ngrid:                      120                      120 
                      126
 Error reading psi - bad grid
 
 Grid is being converted:
 ------------------------
 
 To turn off automatic grid conversion:
 
 set nwpw:psi_nogrid .false.
 
 old_filename: nwc_pweg_dat.movecs                               
 new_filename: nwc_pweg_dat.movecs                               
 converting  :  84x 84x 90 --> 120x120x126
converting .... psi:    1 spin: 1
converting .... psi:    2 spin: 1
converting .... psi:    3 spin: 1
converting .... psi:    4 spin: 1
converting .... psi:    5 spin: 1
converting .... psi:    6 spin: 1
converting .... psi:    7 spin: 1
converting .... psi:    8 spin: 1
converting .... psi:    9 spin: 1
converting .... psi:   10 spin: 1
converting .... psi:   11 spin: 1
converting .... psi:   12 spin: 1
converting .... psi:   13 spin: 1
converting .... psi:   14 spin: 1
converting .... psi:   15 spin: 1
converting .... psi:   16 spin: 1
converting .... psi:   17 spin: 1
converting .... psi:   18 spin: 1
converting .... psi:   19 spin: 1
converting .... psi:   20 spin: 1
converting .... psi:   21 spin: 1
converting .... psi:   22 spin: 1
converting .... psi:   23 spin: 1
converting .... psi:   24 spin: 1
converting .... psi:   25 spin: 1
converting .... psi:   26 spin: 1
converting .... psi:   27 spin: 1
converting .... psi:   28 spin: 1
converting .... psi:   29 spin: 1
converting .... psi:   30 spin: 1
converting .... psi:   31 spin: 1
converting .... psi:   32 spin: 1
converting .... psi:   33 spin: 1
converting .... psi:   34 spin: 1
converting .... psi:   35 spin: 1
converting .... psi:   36 spin: 1
converting .... psi:   37 spin: 1
converting .... psi:   38 spin: 1
converting .... psi:   39 spin: 1
converting .... psi:   40 spin: 1
converting .... psi:   41 spin: 1
converting .... psi:   42 spin: 1
converting .... psi:   43 spin: 1
converting .... psi:   44 spin: 1
converting .... psi:   45 spin: 1
converting .... psi:   46 spin: 1
converting .... psi:   47 spin: 1
converting .... psi:   48 spin: 1
converting .... psi:   49 spin: 1
converting .... psi:   50 spin: 1
converting .... psi:   51 spin: 1
converting .... psi:   52 spin: 1
converting .... psi:   53 spin: 1
converting .... psi:   54 spin: 1
converting .... psi:   55 spin: 1
converting .... psi:   56 spin: 1
converting .... psi:   57 spin: 1
converting .... psi:   58 spin: 1
converting .... psi:   59 spin: 1
converting .... psi:   60 spin: 1
converting .... psi:   61 spin: 1
converting .... psi:   62 spin: 1
converting .... psi:   63 spin: 1
converting .... psi:   64 spin: 1
converting .... psi:   65 spin: 1
converting .... psi:   66 spin: 1
converting .... psi:   67 spin: 1
converting .... psi:   68 spin: 1
converting .... psi:   69 spin: 1
converting .... psi:   70 spin: 1
converting .... psi:   71 spin: 1
converting .... psi:   72 spin: 1
converting .... psi:   73 spin: 1
converting .... psi:   74 spin: 1
converting .... psi:   75 spin: 1
converting .... psi:   76 spin: 1
converting .... psi:   77 spin: 1
converting .... psi:   78 spin: 1
converting .... psi:   79 spin: 1
converting .... psi:   80 spin: 1
converting .... psi:   81 spin: 1
converting .... psi:   82 spin: 1
converting .... psi:   83 spin: 1
converting .... psi:   84 spin: 1
converting .... psi:   85 spin: 1
converting .... psi:   86 spin: 1
converting .... psi:   87 spin: 1
converting .... psi:   88 spin: 1
converting .... psi:   89 spin: 1
converting .... psi:   90 spin: 1
converting .... psi:   91 spin: 1
converting .... psi:   92 spin: 1
converting .... psi:   93 spin: 1
converting .... psi:   94 spin: 1
converting .... psi:   95 spin: 1
converting .... psi:   96 spin: 1
converting .... psi:   97 spin: 1
converting .... psi:   98 spin: 1
[...]
converting .... psi:  133 spin: 1
converting .... psi:  134 spin: 1
converting .... psi:  135 spin: 1
converting .... psi:  136 spin: 1
converting .... psi:  137 spin: 1
converting .... psi:  138 spin: 1
converting .... psi:  139 spin: 1
converting .... psi:  140 spin: 1
converting .... psi:  141 spin: 1
converting .... psi:  142 spin: 1
converting .... psi:  143 spin: 1
converting .... psi:  144 spin: 1
converting .... psi:  145 spin: 1
converting .... psi:  146 spin: 1
converting .... psi:  147 spin: 1
converting .... psi:  148 spin: 1
converting .... psi:  149 spin: 1
converting .... psi:  150 spin: 1
converting .... psi:  151 spin: 1
converting .... psi:  152 spin: 1
converting .... psi:  153 spin: 1
converting .... psi:  154 spin: 1
converting .... psi:  155 spin: 1
converting .... psi:  156 spin: 1
converting .... psi:  157 spin: 1
converting .... psi:  158 spin: 1
converting .... psi:  159 spin: 1
converting .... psi:  160 spin: 1
converting .... psi:  161 spin: 1
converting .... psi:  162 spin: 1
converting .... psi:  163 spin: 1
converting .... psi:  164 spin: 1
converting .... psi:  165 spin: 1
converting .... psi:  166 spin: 1
converting .... psi:  167 spin: 1
converting .... psi:  168 spin: 1
converting .... psi:  169 spin: 1
converting .... psi:  170 spin: 1
converting .... psi:  171 spin: 1
converting .... psi:  172 spin: 1
converting .... psi:  173 spin: 1
converting .... psi:  174 spin: 1
converting .... psi:  175 spin: 1
converting .... psi:  176 spin: 1
converting .... psi:  177 spin: 1
converting .... psi:  178 spin: 1
converting .... psi:  179 spin: 1
converting .... psi:  180 spin: 1
converting .... psi:  181 spin: 1
converting .... psi:  182 spin: 1
converting .... psi:  183 spin: 1
converting .... psi:  184 spin: 1
converting .... psi:  185 spin: 1
converting .... psi:  186 spin: 1
converting .... psi:  187 spin: 1
converting .... psi:  188 spin: 1
converting .... psi:  189 spin: 1
converting .... psi:  190 spin: 1
converting .... psi:  191 spin: 1
converting .... psi:  192 spin: 1
converting .... psi:  193 spin: 1
converting .... psi:  194 spin: 1
converting .... psi:  195 spin: 1

 input psi filename:/lustre/atlas/scratch/hjjvd/csc249/.3808944/nwc_pweg_dat.movecs

 number of processors used:      2048
 processor grid           : 128 x  16
 parallel mapping         :2d hilbert
 parallel mapping         :  balanced
 number of threads        :         1
 parallel io              :       off

 options:
      boundary conditions  = aperiodic   (version4)
      electron spin        = restricted
      exchange-correlation = PBE96 (White and Bird) parameterization

 elements involved in the cluster:
      1: N   valence charge:  5.0000  lmax=  2
             comment    : Hamann pseudopotential
             pseudpotential type            :   0
             highest angular component      :   2
             local potential used           :   2
             number of non-local projections:   4
             aperiodic cutoff radius        :  1.000
             cutoff =   0.700   0.700   0.700
 
      2: C   valence charge:  4.0000  lmax=  2
             comment    : Parameterized (J.Phys.Chem., vol 100, page 6966) Hamman psp
             pseudpotential type            :   0
             highest angular component      :   2
             local potential used           :   2
             number of non-local projections:   4
             aperiodic cutoff radius        :  1.000
             cutoff =   0.800   0.850   0.850
 
      3: O   valence charge:  6.0000  lmax=  2
             comment    : Parameterized (Chem.Phys.Lett., vol 322, page 447) Hamman psp
             pseudpotential type            :   0
             highest angular component      :   2
             local potential used           :   2
             number of non-local projections:   4
             aperiodic cutoff radius        :  1.000
             cutoff =   0.700   0.700   0.700
 
      4: H   valence charge:  1.0000  lmax=  1
             comment    : Parameterized (Chem.Phys.Lett., vol 322, page 447) Hamman psp
             pseudpotential type            :   0
             highest angular component      :   1
             local potential used           :   1
             number of non-local projections:   1
             aperiodic cutoff radius        :  1.000
             cutoff =   0.800   0.800
 

 total charge:   1.000

 atomic composition:
     N   :   12     C   :   40     O   :   17     H   :   69

 number of electrons: spin up=   195 (  13 per task)  down=   195 (  13 per task) (Fourier space)
 number of orbitals : spin up=   195 (  13 per task)  down=   195 (  13 per task) (Fourier space)

 supercell:
      cell_name:  cell_default                                      
      lattice:    a1=<  26.000   0.000   0.000 >
                  a2=<   0.000  25.000   0.000 >
                  a3=<   0.000   0.000  27.000 >
      reciprocal: b1=<   0.242   0.000  -0.000 >
                  b2=<  -0.000   0.251  -0.000 >
                  b3=<   0.000   0.000   0.233 >
      lattice:    a=      26.000 b=     25.000 c=      27.000
                  alpha=  90.000 beta=  90.000 gamma=  90.000
                  omega=     17550.0

      density cutoff=200.000  fft=168x160x180(  1185475 waves     9261 per task)
      wavefnc cutoff=100.000  fft=168x160x180(   419131 waves     3274 per task)

 technical parameters:
      time step=      5.80     fictitious mass=  400000.0
      tolerance=0.100E-06 (energy)   0.100E-06 (density)
      maximum iterations =      1000 (   10 inner    100 outer )





== Energy Calculation ==


          ============ Grassmann lmbfgs iteration ============
     >>>  ITERATION STARTED AT Thu Jan  4 02:20:51 2018  <<<
    iter.           Energy         DeltaE       DeltaRho 
    ------------------------------------------------------
      10   -0.4713087927E+03   -0.16306E-03    0.14381E-02
      20   -0.4713093424E+03   -0.20628E-04    0.42689E-04
      30   -0.4713094534E+03   -0.61243E-05    0.44967E-05
      40   -0.4713094898E+03   -0.23209E-05    0.93065E-06
      50   -0.4713095053E+03   -0.11030E-05    0.26310E-06
      60   -0.4713095135E+03   -0.62259E-06    0.10411E-06
      70   -0.4713095185E+03   -0.38455E-06    0.53864E-07
      80   -0.4713095216E+03   -0.26056E-06    0.29601E-07
      90   -0.4713095240E+03   -0.21657E-06    0.22192E-07
     100   -0.4713095259E+03   -0.17191E-06    0.21131E-07
     110   -0.4713095273E+03   -0.12926E-06    0.19503E-07
     120   -0.4713095284E+03   -0.98156E-07    0.15307E-07
  *** tolerance ok. iteration terminated
     >>>  ITERATION ENDED   AT Thu Jan  4 02:36:37 2018  <<<


==  Summary Of Results  ==
 
 number of electrons: spin up=  195.00000  down=  195.00000 (real space)

 total     energy    :  -0.4713095284E+03 (   -0.34153E+01/ion)
 total orbital energy:  -0.7851764673E+02 (   -0.40265E+00/electron)
 hartree   energy    :   0.7138357123E+04 (    0.36607E+02/electron)
 exc-corr  energy    :  -0.1712812415E+03 (   -0.87837E+00/electron)
 ion-ion   energy    :   0.6694218055E+04 (    0.48509E+02/ion)

 kinetic (planewave) :   0.4008324084E+03 (    0.20556E+01/electron)
 V_local (planewave) :  -0.1451453925E+05 (   -0.74434E+02/electron)
 V_nl    (planewave) :  -0.1889662251E+02 (   -0.96906E-01/electron)
 V_Coul  (planewave) :   0.1427671425E+05 (    0.73214E+02/electron)
 V_xc.   (planewave) :  -0.2226284275E+03 (   -0.11417E+01/electron)
 Virial Coefficient  :  -0.1195886473E+01

 orbital energies:
     0.1827935E+00 (   4.974eV)
     0.1808639E+00 (   4.922eV)
     0.1775827E+00 (   4.832eV)
     0.1713313E+00 (   4.662eV)
     0.1694178E+00 (   4.610eV)
     0.1624155E+00 (   4.420eV)
     0.1583073E+00 (   4.308eV)
     0.1527156E+00 (   4.156eV)
     0.1432865E+00 (   3.899eV)
     0.1330049E+00 (   3.619eV)
     0.1234240E+00 (   3.359eV)
     0.1211952E+00 (   3.298eV)
     0.1117111E+00 (   3.040eV)
     0.1105680E+00 (   3.009eV)
     0.9939825E-01 (   2.705eV)
     0.9899499E-01 (   2.694eV)
     0.9578793E-01 (   2.607eV)
     0.8863029E-01 (   2.412eV)
     0.8778458E-01 (   2.389eV)
     0.7974133E-01 (   2.170eV)
     0.7410880E-01 (   2.017eV)
     0.7229605E-01 (   1.967eV)
     0.7028304E-01 (   1.913eV)
     0.6929805E-01 (   1.886eV)
     0.6697783E-01 (   1.823eV)
     0.6003038E-01 (   1.634eV)
     0.5847854E-01 (   1.591eV)
     0.5622721E-01 (   1.530eV)
     0.5299942E-01 (   1.442eV)
     0.5060622E-01 (   1.377eV)
     0.4713522E-01 (   1.283eV)
     0.4568810E-01 (   1.243eV)
     0.4514818E-01 (   1.229eV)
     0.4160660E-01 (   1.132eV)
     0.3888734E-01 (   1.058eV)
     0.3592854E-01 (   0.978eV)
     0.3257190E-01 (   0.886eV)
     0.3008508E-01 (   0.819eV)
     0.2629186E-01 (   0.715eV)
     0.1992193E-01 (   0.542eV)
     0.1761873E-01 (   0.479eV)
     0.1346012E-01 (   0.366eV)
     0.1212841E-01 (   0.330eV)
     0.4774101E-02 (   0.130eV)
     0.6195611E-04 (   0.002eV)
    -0.2388005E-02 (  -0.065eV)
    -0.2504815E-02 (  -0.068eV)
    -0.9826094E-02 (  -0.267eV)
    -0.1628292E-01 (  -0.443eV)
    -0.1773393E-01 (  -0.483eV)
    -0.2421139E-01 (  -0.659eV)
    -0.2553300E-01 (  -0.695eV)
    -0.3082811E-01 (  -0.839eV)
    -0.3379622E-01 (  -0.920eV)
    -0.3634567E-01 (  -0.989eV)
    -0.3976818E-01 (  -1.082eV)
    -0.4154834E-01 (  -1.131eV)
    -0.4365320E-01 (  -1.188eV)
    -0.4511293E-01 (  -1.228eV)
    -0.4735574E-01 (  -1.289eV)
    -0.5088306E-01 (  -1.385eV)
    -0.5327624E-01 (  -1.450eV)
    -0.5743551E-01 (  -1.563eV)
    -0.5889223E-01 (  -1.603eV)
    -0.6052635E-01 (  -1.647eV)
    -0.6355547E-01 (  -1.729eV)
    -0.6487455E-01 (  -1.765eV)
    -0.6642637E-01 (  -1.808eV)
    -0.6916198E-01 (  -1.882eV)
    -0.7333633E-01 (  -1.996eV)
    -0.7476190E-01 (  -2.034eV)
    -0.7857504E-01 (  -2.138eV)
    -0.7926577E-01 (  -2.157eV)
    -0.8140226E-01 (  -2.215eV)
    -0.8328336E-01 (  -2.266eV)
    -0.8662584E-01 (  -2.357eV)
    -0.8818541E-01 (  -2.400eV)
    -0.8953619E-01 (  -2.436eV)
    -0.9143828E-01 (  -2.488eV)
    -0.9606320E-01 (  -2.614eV)
    -0.1000379E+00 (  -2.722eV)
    -0.1011031E+00 (  -2.751eV)
    -0.1016603E+00 (  -2.766eV)
    -0.1048557E+00 (  -2.853eV)
    -0.1074482E+00 (  -2.924eV)
    -0.1098188E+00 (  -2.988eV)
    -0.1101906E+00 (  -2.998eV)
    -0.1134819E+00 (  -3.088eV)
    -0.1155088E+00 (  -3.143eV)
    -0.1185284E+00 (  -3.225eV)
    -0.1208439E+00 (  -3.288eV)
    -0.1222704E+00 (  -3.327eV)
    -0.1233403E+00 (  -3.356eV)
    -0.1286733E+00 (  -3.501eV)
    -0.1313298E+00 (  -3.574eV)
    -0.1338382E+00 (  -3.642eV)
    -0.1352672E+00 (  -3.681eV)
    -0.1384930E+00 (  -3.769eV)
    -0.1399240E+00 (  -3.808eV)
    -0.1416397E+00 (  -3.854eV)
    -0.1434333E+00 (  -3.903eV)
    -0.1474932E+00 (  -4.014eV)
    -0.1494959E+00 (  -4.068eV)
    -0.1507115E+00 (  -4.101eV)
    -0.1538789E+00 (  -4.187eV)
    -0.1547347E+00 (  -4.211eV)
    -0.1589781E+00 (  -4.326eV)
    -0.1620642E+00 (  -4.410eV)
    -0.1680954E+00 (  -4.574eV)
    -0.1707860E+00 (  -4.647eV)
    -0.1795222E+00 (  -4.885eV)
    -0.1803437E+00 (  -4.907eV)
    -0.1821905E+00 (  -4.958eV)
    -0.1844167E+00 (  -5.018eV)
    -0.1870652E+00 (  -5.090eV)
    -0.1923904E+00 (  -5.235eV)
    -0.1960862E+00 (  -5.336eV)
    -0.1984518E+00 (  -5.400eV)
    -0.2078616E+00 (  -5.656eV)
    -0.2098849E+00 (  -5.711eV)
    -0.2186011E+00 (  -5.948eV)
    -0.2204186E+00 (  -5.998eV)
    -0.2213705E+00 (  -6.024eV)
    -0.2327421E+00 (  -6.333eV)
    -0.2342907E+00 (  -6.375eV)
    -0.2357221E+00 (  -6.414eV)
    -0.2386459E+00 (  -6.494eV)
    -0.2413689E+00 (  -6.568eV)
    -0.2482702E+00 (  -6.756eV)
    -0.2508790E+00 (  -6.827eV)
    -0.2526702E+00 (  -6.876eV)
    -0.2623222E+00 (  -7.138eV)
    -0.2704642E+00 (  -7.360eV)
    -0.2721915E+00 (  -7.407eV)
    -0.2801108E+00 (  -7.622eV)
    -0.2818136E+00 (  -7.669eV)
    -0.2884803E+00 (  -7.850eV)
    -0.2939597E+00 (  -7.999eV)
    -0.3001459E+00 (  -8.167eV)
    -0.3107631E+00 (  -8.456eV)
    -0.3170430E+00 (  -8.627eV)
    -0.3250085E+00 (  -8.844eV)
    -0.3274913E+00 (  -8.912eV)
    -0.3306430E+00 (  -8.997eV)
    -0.3345368E+00 (  -9.103eV)
    -0.3452644E+00 (  -9.395eV)
    -0.3517557E+00 (  -9.572eV)
    -0.3601778E+00 (  -9.801eV)
    -0.3723489E+00 ( -10.132eV)
    -0.3745081E+00 ( -10.191eV)
    -0.3851850E+00 ( -10.482eV)
    -0.3907848E+00 ( -10.634eV)
    -0.3917724E+00 ( -10.661eV)
    -0.4035093E+00 ( -10.980eV)
    -0.4093706E+00 ( -11.140eV)
    -0.4129789E+00 ( -11.238eV)
    -0.4193912E+00 ( -11.412eV)
    -0.4230868E+00 ( -11.513eV)
    -0.4302041E+00 ( -11.707eV)
    -0.4431675E+00 ( -12.059eV)
    -0.4592063E+00 ( -12.496eV)
    -0.4796187E+00 ( -13.051eV)
    -0.4854921E+00 ( -13.211eV)
    -0.4930515E+00 ( -13.417eV)
    -0.5153436E+00 ( -14.023eV)
    -0.5306916E+00 ( -14.441eV)
    -0.5365032E+00 ( -14.599eV)
    -0.5423386E+00 ( -14.758eV)
    -0.5444317E+00 ( -14.815eV)
    -0.5517698E+00 ( -15.015eV)
    -0.5549512E+00 ( -15.101eV)
    -0.5651741E+00 ( -15.379eV)
    -0.5696866E+00 ( -15.502eV)
    -0.5745363E+00 ( -15.634eV)
    -0.5895925E+00 ( -16.044eV)
    -0.6239034E+00 ( -16.977eV)
    -0.6244990E+00 ( -16.994eV)
    -0.6322213E+00 ( -17.204eV)
    -0.6331412E+00 ( -17.229eV)
    -0.6365630E+00 ( -17.322eV)
    -0.6442117E+00 ( -17.530eV)
    -0.6520014E+00 ( -17.742eV)
    -0.6552501E+00 ( -17.830eV)
    -0.6593947E+00 ( -17.943eV)
    -0.6734513E+00 ( -18.326eV)
    -0.6774992E+00 ( -18.436eV)
    -0.6936609E+00 ( -18.876eV)
    -0.7011038E+00 ( -19.078eV)
    -0.7203344E+00 ( -19.601eV)
    -0.7752058E+00 ( -21.095eV)
    -0.7822735E+00 ( -21.287eV)
    -0.8376524E+00 ( -22.794eV)
    -0.8728188E+00 ( -23.751eV)
    -0.9627927E+00 ( -26.199eV)
    -0.1036035E+01 ( -28.192eV)

 Total PSPW energy     :  -0.4713095284E+03


=== Spin Contamination ===
 
 <Sexact^2> =     0.000000000000000     
 <S^2>      =     0.000000000000000     
 


== Center of Charge ==

spin up     (    0.0166,    0.1191,   -0.0432 )
spin down   (    0.0166,    0.1191,   -0.0432 )
     total  (    0.0166,    0.1191,   -0.0432 )
ionic       (    0.0094,   -0.0080,    0.0005 )


== Molecular Dipole wrt Center of Mass ==

mu   =  (   -2.8096,  -49.5657,   17.0631 ) au
|mu| =    52.4957 au,     133.4231 Debye

 output psi filename:/lustre/atlas/scratch/hjjvd/csc249/.3808944/nwc_pweg_dat.movecs


== Timing ==

cputime in seconds
  prologue    :   0.634001E+03
  main loop   :   0.948977E+03
  epilogue    :   0.214094E+03
  total       :   0.179707E+04
  cputime/step:   0.351473E+01       (     270 evalulations,     120 linesearches)


Time spent doing                        total          step       percent
  total time                 :   0.180229E+04  0.667516E+01       100.0 %
  i/o time                   :   0.360691E+03  0.133589E+01        20.0 %
  FFTs                       :   0.596076E+02  0.220769E+00         3.3 %
  dot products               :   0.536621E+02  0.198748E+00         3.0 %
  geodesic                   :   0.685797E+03  0.253999E+01        38.1 %
  ffm_dgemm                  :   0.155312E+03  0.575229E+00         8.6 %
  fmf_dgemm                  :   0.588126E+03  0.217825E+01        32.6 %
  mmm_dgemm                  :   0.388752E+01  0.143982E-01         0.2 %
  m_diagonalize              :   0.538439E+01  0.199422E-01         0.3 %
  exchange correlation       :   0.339008E+02  0.125558E+00         1.9 %
  local pseudopotentials     :   0.104217E+00  0.385989E-03         0.0 %
  non-local pseudopotentials :   0.257230E+02  0.952705E-01         1.4 %
  structure factors          :   0.202219E+01  0.748958E-02         0.1 %
  phase factors              :   0.276995E-02  0.102591E-04         0.0 %
  masking and packing        :   0.110411E+02  0.408931E-01         0.6 %
  queue fft                  :   0.456642E+02  0.169127E+00         2.5 %
  queue fft (serial)         :   0.143923E+02  0.533050E-01         0.8 %
  queue fft (message passing):   0.298899E+02  0.110703E+00         1.7 %
  non-local psp FFM          :   0.133147E+02  0.493136E-01         0.7 %
  non-local psp FMF          :   0.994965E+01  0.368506E-01         0.6 %
  non-local psp FFM A        :   0.144056E+01  0.533539E-02         0.1 %
  non-local psp FFM B        :   0.100664E+02  0.372831E-01         0.6 %
 
     >>>  JOB COMPLETED     AT Thu Jan  4 02:40:14 2018  <<<

 Task  times  cpu:     4922.5s     wall:     5147.4s
 
 
                                NWChem Input Module
                                -------------------
 
 
 Summary of allocated global arrays
-----------------------------------
  No active global arrays



                         GA Statistics for process    0
                         ------------------------------

       create   destroy   get      put      acc     scatter   gather  read&inc
calls:    0        0        0        0        0        0        0        0     
number of processes/call 0.00e+00 0.00e+00 0.00e+00 0.00e+00 0.00e+00
bytes total:             0.00e+00 0.00e+00 0.00e+00 0.00e+00 0.00e+00 0.00e+00
bytes remote:            0.00e+00 0.00e+00 0.00e+00 0.00e+00 0.00e+00 0.00e+00
Max memory consumed for GA by this process: 0 bytes
 
MA_summarize_allocated_blocks: starting scan ...
MA_summarize_allocated_blocks: scan completed: 0 heap blocks, 0 stack blocks
MA usage statistics:

	allocation statistics:
					      heap	     stack
					      ----	     -----
	current number of blocks	         0	         0
	maximum number of blocks	       320	        15
	current total bytes		         0	         0
	maximum total bytes		 202707944	   9293128
	maximum total K-bytes		    202708	      9294
	maximum total M-bytes		       203	        10
 
 
                                     CITATION
                                     --------
                Please cite the following reference when publishing
                           results obtained with NWChem:
 
                 M. Valiev, E.J. Bylaska, N. Govind, K. Kowalski,
              T.P. Straatsma, H.J.J. van Dam, D. Wang, J. Nieplocha,
                        E. Apra, T.L. Windus, W.A. de Jong
                 "NWChem: a comprehensive and scalable open-source
                  solution for large scale molecular simulations"
                      Comput. Phys. Commun. 181, 1477 (2010)
                           doi:10.1016/j.cpc.2010.04.018
 
                                      AUTHORS
                                      -------
          E. Apra, E. J. Bylaska, W. A. de Jong, N. Govind, K. Kowalski,
       T. P. Straatsma, M. Valiev, H. J. J. van Dam, D. Wang, T. L. Windus,
        J. Hammond, J. Autschbach, K. Bhaskaran-Nair, J. Brabec, K. Lopata,
    S. A. Fischer, S. Krishnamoorthy, M. Jacquelin, W. Ma, M. Klemm, O. Villa,
      Y. Chen, V. Anisimov, F. Aquino, S. Hirata, M. T. Hackler, V. Konjkov,
      T. Risthaus, M. Malagoli, A. Marenich, A. Otero-de-la-Roza, J. Mullin,
        P. Nichols, R. Peverati, J. Pittner, Y. Zhao, P.-D. Fan, A. Fonari,
       M. Williamson, R. J. Harrison, J. R. Rehr, M. Dupuis, D. Silverstein,
    D. M. A. Smith, J. Nieplocha, V. Tipparaju, M. Krishnan, B. E. Van Kuiken,
        A. Vazquez-Mayagoitia, L. Jensen, M. Swart, Q. Wu, T. Van Voorhis,
     A. A. Auer, M. Nooijen, L. D. Crosby, E. Brown, G. Cisneros, G. I. Fann,
   H. Fruchtl, J. Garza, K. Hirao, R. A. Kendall, J. A. Nichols, K. Tsemekhman,
    K. Wolinski, J. Anchell, D. E. Bernholdt, P. Borowski, T. Clark, D. Clerc,
   H. Dachsel, M. J. O. Deegan, K. Dyall, D. Elwood, E. Glendening, M. Gutowski,
   A. C. Hess, J. Jaffe, B. G. Johnson, J. Ju, R. Kobayashi, R. Kutteh, Z. Lin,
   R. Littlefield, X. Long, B. Meng, T. Nakajima, S. Niu, L. Pollack, M. Rosing,
   K. Glaesemann, G. Sandrone, M. Stave, H. Taylor, G. Thomas, J. H. van Lenthe,
                               A. T. Wong, Z. Zhang.

 Total times  cpu:     4923.2s     wall:     5148.3s
Application 16584236 resources: utime ~10499772s, stime ~48779s, Rss ~216420, inblocks ~93528653, outblocks ~138929605
