/autofs/nccs-svm1_home1/hjjvd
CODAR
NWX_TA
Nwchem-6.6.revision27746-src.2015-10-20.tar.gz
summitdev
titan
PE 0: MPICH Warning: DMAPP optimizations are not supported if libdmapp is not linked into your application. Please see the mpi man page. Disabling all requested DMAPP optimizations.
 argument  1 = nwc_gbeg_631g.nw
 


============================== echo of input deck ==============================
echo
start nwc_gbeg_dat
title "E and Grad of 1UBQ"
memory stack 1600 mb heap 100 mb global 4000 mb noverify
geometry noautoz
   #load format pdb "../struct_h_added/step1_pdbreader.pdb"
   load format xyz "ct500838h_si_003.xyz"
end
basis 631g spherical
  * library 6-31g
end
basis 631gp spherical
  * library 6-31g*
end
basis pvtz spherical
  * library cc-pVTZ
end
basis apvtz spherical
  * library aug-cc-pVTZ
end

set "ao basis" 631g
dft
  direct
  xc pbe0
  convergence energy 1d-5 diis 5 ncydp 0 damp 40 dampon 1d99 dampoff 1d-3
  smear
  tolerances acccoul 11
  convergence energy 1d-5
  vectors input atomic output ub_start_631g.mos
  noprint "final vectors analysis" multipole
  maxiter 10
end
set quickguess t
set dft:pstat t
set int:cando_hnd f
set int:acc_std double 1.d-10
task dft ignore

set "ao basis" 631g
dft
  direct
  xc pbe0
  convergence energy 1d-5
  tolerances acccoul 11
  vectors input project 631g ub_start_631g.mos  output ub_631g.mos
  noprint "final vectors analysis" multipole
  maxiter 120
end
task dft ignore
================================================================================


                                         
                                         
 
 
              Northwest Computational Chemistry Package (NWChem) 6.6
              ------------------------------------------------------
 
 
                    Environmental Molecular Sciences Laboratory
                       Pacific Northwest National Laboratory
                                Richland, WA 99352
 
                              Copyright (c) 1994-2015
                       Pacific Northwest National Laboratory
                            Battelle Memorial Institute
 
             NWChem is an open-source computational chemistry package
                        distributed under the terms of the
                      Educational Community License (ECL) 2.0
             A copy of the license is included with this distribution
                              in the LICENSE.TXT file
 
                                  ACKNOWLEDGMENT
                                  --------------

            This software and its documentation were developed at the
            EMSL at Pacific Northwest National Laboratory, a multiprogram
            national laboratory, operated for the U.S. Department of Energy
            by Battelle under Contract Number DE-AC05-76RL01830. Support
            for this work was provided by the Department of Energy Office
            of Biological and Environmental Research, Office of Basic
            Energy Sciences, and the Office of Advanced Scientific Computing.


           Job information
           ---------------

    hostname        = nid04852
    program         = /sw/xk6/nwchem/6.6/sles11.3_pgi15.7.0/bin/LINUX64/nwchem
    date            = Thu Jul 27 10:10:17 2017

    compiled        = Fri_Feb_19_13:12:20_2016
    source          = /sw/xk6/nwchem/6.6/sles11.3_pgi15.7.0
    nwchem branch   = 6.6
    nwchem revision = 27746
    ga revision     = 10594
    input           = nwc_gbeg_631g.nw
    prefix          = nwc_gbeg_dat.
    data base       = /lustre/atlas/scratch/hjjvd/csc242/nwc_gbeg_dat.db
    status          = startup
    nproc           =     3840
    time left       =     -1s



           Memory information
           ------------------

    heap     =   13107196 doubles =    100.0 Mbytes
    stack    =  209715201 doubles =   1600.0 Mbytes
    global   =  524288000 doubles =   4000.0 Mbytes (distinct from heap & stack)
    total    =  747110397 doubles =   5700.0 Mbytes
    verify   = no 
    hardfail = no 


           Directory information
           ---------------------
 
  0 permanent = /lustre/atlas/scratch/hjjvd/csc242
  0 scratch   = /lustre/atlas/scratch/hjjvd/csc242
 
 
 
 
                                NWChem Input Module
                                -------------------
 
 
                                E and Grad of 1UBQ
                                ------------------

 Scaling coordinates for geometry "geometry" by  1.889725989
 (inverse scale =  0.529177249)

 C1  symmetry detected
 
 
                             Geometry "geometry" -> ""
                             -------------------------
 
 Output coordinates in angstroms (scale by  1.889725989 to convert to a.u.)
 
  No.       Tag          Charge          X              Y              Z
 ---- ---------------- ---------- -------------- -------------- --------------
    1 N                    7.0000     4.65931967   -12.04758337     4.86113155
    2 C                    6.0000     5.18027721   -12.06781689     3.48274741
    3 C                    6.0000     5.71624406   -10.64737062     3.18029424
    4 O                    8.0000     5.18233922    -9.68317531     3.72692210
    5 C                    6.0000     4.16883262   -12.49939900     2.45426760
    6 C                    6.0000     3.21361367   -11.41569079     2.03374496
    7 S                   16.0000     1.92621401   -12.20976678     0.96525283
    8 C                    6.0000     0.87667405   -10.79167953     0.64892327
    9 N                    7.0000     6.70968526   -10.61989755     2.34357815
   10 C                    6.0000     7.28648915    -9.29755224     1.94542472
   11 C                    6.0000     6.56623148    -8.79974993     0.70036981
   12 O                    8.0000     6.21796750    -9.56669785    -0.24013702
   13 C                    6.0000     8.77547729    -9.45686072     1.77988884
   14 C                    6.0000     9.52468034    -8.36901355     1.08282047
   15 C                    6.0000    11.02497778    -8.66283541     1.04320619
   16 O                    8.0000    11.81169493    -8.03340569     1.74783897
   17 N                    7.0000    11.36360867    -9.60809415     0.18616008
   18 N                    7.0000     6.27354209    -7.50825223     0.69909782
   19 C                    6.0000     5.70813915    -6.86225327    -0.50090420
   20 C                    6.0000     6.56261560    -5.57925237    -0.73006069
   21 O                    8.0000     7.23947523    -5.21272662     0.21534341
   22 C                    6.0000     4.20908438    -6.55103786    -0.45814027
   23 C                    6.0000     3.85971024    -5.59490259     0.69486410
   24 C                    6.0000     3.40403528    -7.90861277    -0.43577268
   25 C                    6.0000     2.45396724    -4.91445051     0.51274988
   26 N                    7.0000     6.43558460    -5.07348400    -1.93344237
   27 C                    6.0000     7.22054072    -3.81966834    -2.24577424
   28 C                    6.0000     6.25512080    -2.70009386    -2.51934944
   29 O                    8.0000     5.27104273    -2.98506830    -3.21796373
   30 C                    6.0000     8.11032915    -4.10969221    -3.46024396
   31 C                    6.0000     9.09794415    -5.22425447    -3.22754976
   32 C                    6.0000     8.82170033    -6.51195785    -3.66727735
   33 C                    6.0000    10.27540392    -4.91002952    -2.50991116
   34 C                    6.0000     9.72419358    -7.55077981    -3.39318635
   35 C                    6.0000    11.17185404    -5.96034106    -2.21538808
   36 C                    6.0000    10.88371820    -7.23324025    -2.72646281
   37 N                    7.0000     6.49151399    -1.47110776    -2.07205824
   38 C                    6.0000     5.62625874    -0.35479598    -2.39507426
   39 C                    6.0000     6.51041690     0.64276078    -3.18238542
   40 O                    8.0000     7.43832877     1.11088790    -2.51167194
   41 C                    6.0000     5.03346458     0.34185934    -1.16054785
   42 C                    6.0000     4.14931307     1.47989264    -1.61955692
   43 C                    6.0000     4.20616393    -0.67289198    -0.33182932
   44 N                    7.0000     6.21163580     0.84627131    -4.41790892
   45 C                    6.0000     7.04852438     1.76886276    -5.26120929
   46 C                    6.0000     6.40417175     3.12758291    -5.24382375
   47 O                    8.0000     5.19685294     3.25874493    -5.55054645
   48 C                    6.0000     7.11428534     1.17273406    -6.66482856
   49 C                    6.0000     7.99739379     1.87365768    -7.69095699
   50 C                    6.0000     7.98554294     1.04909769    -8.99657346
   51 C                    6.0000     8.96603778     1.51953316   -10.04461322
   52 N                    7.0000     8.75140862     0.72877345   -11.29908777
   53 N                    7.0000     7.18465931     4.17823962    -4.90395667
   54 C                    6.0000     6.62151934     5.53616047    -4.86720968
   55 C                    6.0000     6.99160002     6.27333444    -6.15590508
   56 O                    8.0000     7.85432445     5.77070642    -6.87934729
   57 C                    6.0000     7.14773821     6.32595566    -3.60461582
   58 O                    8.0000     8.50165262     6.68501905    -4.00778732
   59 C                    6.0000     7.22147160     5.47271417    -2.32661647
   60 N                    7.0000     6.42201733     7.43658597    -6.38744218
   61 C                    6.0000     6.69593247     8.18801665    -7.63279090
   62 C                    6.0000     8.07500110     8.81611268    -7.64471094
   63 O                    8.0000     8.50178044     9.34240347    -8.69066667
   64 C                    6.0000     5.54965651     9.17452518    -7.87390775
   65 C                    6.0000     4.19202531     8.58053726    -8.22516958
   66 C                    6.0000     3.24600965     9.63670305    -8.77122196
   67 C                    6.0000     4.30904648     7.46823815    -9.26102466
   68 N                    7.0000     8.80398932     8.74905657    -6.51492306
   69 C                    6.0000    10.16417061     9.38466173    -6.57705148
   70 C                    6.0000    11.25038162     8.36925780    -6.75336517
   71 O                    8.0000    12.43992680     8.62859547    -6.49175434
   72 C                    6.0000    10.33250018    10.23532227    -5.27919217
   73 O                    8.0000    10.46085663     9.18558395    -4.26125304
   74 C                    6.0000     9.13572671    11.13498484    -4.99221738
   75 N                    7.0000    10.91094172     7.17266365    -7.12139644
   76 C                    6.0000    11.85270409     6.09594700    -7.33360363
   77 C                    6.0000    12.38343330     5.42923897    -6.09985450
   78 O                    8.0000    13.41977437     4.73046305    -6.15530175
   79 N                    7.0000    11.71638736     5.63964432    -4.99426855
   80 C                    6.0000    12.04904856     4.97502007    -3.74118750
   81 C                    6.0000    11.10074061     3.75769228    -3.65893130
   82 O                    8.0000     9.92513329     3.94914952    -3.95109829
   83 C                    6.0000    11.82221547     5.82842939    -2.50389155
   84 C                    6.0000    12.21171671     5.06929306    -1.21040409
   85 C                    6.0000    11.94653509     5.97128449    -0.00465446
   86 C                    6.0000    12.83957558     5.71725322     1.16967719
   87 N                    7.0000    12.94750028     4.30734436     1.57105267
   88 N                    7.0000    11.63175800     2.62677076    -3.23258278
   89 C                    6.0000    10.73361340     1.46886207    -3.06042659
   90 C                    6.0000    10.82291889     1.07964450    -1.58506385
   91 O                    8.0000    11.95706241     0.92281086    -1.12834000
   92 C                    6.0000    11.06128706     0.22114407    -3.94685525
   93 O                    8.0000    10.87862698     0.67628661    -5.31384448
   94 C                    6.0000    10.14046140    -0.96869769    -3.62845663
   95 N                    7.0000     9.66149602     0.89045456    -0.95866374
   96 C                    6.0000     9.77067352     0.50427151     0.47876624
   97 C                    6.0000     9.35658388    -0.93295546     0.63467128
   98 O                    8.0000     8.46188481    -1.40421475    -0.09439543
   99 C                    6.0000     9.06745340     1.55422826     1.35517784
  100 C                    6.0000     8.00878366     0.95303043     2.29290944
  101 C                    6.0000     8.48646841     2.82297949     0.60236461
  102 C                    6.0000     7.26376991     2.07914805     3.05858797
  103 N                    7.0000    10.02090672    -1.67597999     1.49104720
  104 C                    6.0000     9.56984982    -3.08882856     1.66470373
  105 C                    6.0000     8.76371517    -3.17356506     2.93519759
  106 O                    8.0000     9.16084330    -2.59188902     3.97851309
  107 C                    6.0000    10.85126124    -4.00663943     1.71410976
  108 O                    8.0000    11.42372298    -3.52032956     2.98661605
  109 C                    6.0000    11.81171879    -3.72170893     0.57129442
  110 N                    7.0000     7.67403523    -3.92497188     2.94114776
  111 C                    6.0000     6.82995421    -4.05400478     4.10928977
  112 C                    6.0000     6.65900051    -5.54576553     4.42121076
  113 O                    8.0000     6.72788083    -6.29550157     3.45665419
  114 C                    6.0000     5.46655196    -3.50890625     3.68386777
  115 C                    6.0000     4.70702212    -2.33836438     4.21724957
  116 C                    6.0000     5.53353658    -1.19282335     4.76489416
  117 C                    6.0000     3.77241986    -1.86615232     3.09140260
  118 N                    7.0000     6.40125333    -5.82976561     5.67469804
  119 C                    6.0000     6.08946808    -7.25840665     6.00380554
  120 C                    6.0000     4.62670471    -7.22308078     6.38870087
  121 O                    8.0000     4.25447036    -6.43476944     7.25610667
  122 C                    6.0000     6.96515931    -7.81683447     7.10069853
  123 C                    6.0000     8.40505402    -8.13432408     6.62349044
  124 C                    6.0000     9.28169992    -8.94383560     7.53371243
  125 O                    8.0000    10.03054794    -9.81571038     7.11221391
  126 O                    8.0000     9.18283913    -8.59707038     8.74126219
  127 N                    7.0000     3.87456029    -8.00448772     5.62801765
  128 C                    6.0000     2.42854792    -8.08749194     5.79681487
  129 C                    6.0000     1.93557727    -9.53599057     5.66287213
  130 O                    8.0000     2.69142157   -10.45745142     5.27908665
  131 C                    6.0000     1.71292013    -7.20949682     4.72395167
  132 C                    6.0000     2.00605771    -5.73511794     4.79445188
  133 C                    6.0000     1.99585762    -7.77283174     3.33199113
  134 N                    7.0000     0.67200156    -9.66405830     6.00251473
  135 C                    6.0000    -0.08258377   -10.91071573     5.86329109
  136 C                    6.0000    -1.24418880   -10.60458407     4.92915236
  137 O                    8.0000    -1.82147122    -9.52923665     4.96701938
  138 C                    6.0000    -0.66699216   -11.37017521     7.19449875
  139 C                    6.0000     0.34800331   -11.95882637     8.18585086
  140 C                    6.0000     1.20646666   -13.08446246     7.72866374
  141 O                    8.0000     1.05994116   -13.83519783     6.79111339
  142 O                    8.0000     2.21768520   -13.24812475     8.48622280
  143 N                    7.0000    -1.61536966   -11.56363979     4.10323354
  144 C                    6.0000    -2.74779964   -11.41999358     3.18653887
  145 C                    6.0000    -4.01460283   -11.03957795     3.91120128
  146 O                    8.0000    -4.95699398   -10.48770963     3.32514984
  147 C                    6.0000    -2.87394425   -12.81774395     2.54094266
  148 C                    6.0000    -1.47158172   -13.32903953     2.58049233
  149 C                    6.0000    -0.97946806   -12.89952599     3.98562729
  150 N                    7.0000    -4.09537541   -11.36612403     5.19012131
  151 C                    6.0000    -5.31879080   -11.07983217     5.95740077
  152 C                    6.0000    -5.36146081    -9.63181513     6.38566111
  153 O                    8.0000    -6.35248988    -9.23964595     7.02582806
  154 C                    6.0000    -5.39290208   -11.94804368     7.20146118
  155 O                    8.0000    -4.10249293   -12.16957062     7.77726413
  156 N                    7.0000    -4.26129246    -8.90781559     6.16879191
  157 C                    6.0000    -4.28049964    -7.48651263     6.60609955
  158 C                    6.0000    -5.19379567    -6.68817446     5.71139930
  159 O                    8.0000    -5.26119895    -6.92871687     4.48988624
  160 C                    6.0000    -2.83065257    -6.91010906     6.48977500
  161 C                    6.0000    -1.99979133    -7.31607482     7.67837729
  162 O                    8.0000    -2.57238995    -7.68062197     8.71827209
  163 O                    8.0000    -0.76375695    -7.40248378     7.52184457
  164 N                    7.0000    -5.81392131    -5.66954643     6.28290793
  165 C                    6.0000    -6.64984460    -4.75774270     5.53783731
  166 C                    6.0000    -5.74094270    -3.68467477     4.89461920
  167 O                    8.0000    -4.61033893    -3.48723424     5.35080816
  168 C                    6.0000    -7.68853099    -4.07231480     6.49150242
  169 O                    8.0000    -6.86898579    -3.34587165     7.48245096
  170 C                    6.0000    -8.59897886    -5.11189724     7.17869020
  171 N                    7.0000    -6.31800784    -3.05108135     3.87281677
  172 C                    6.0000    -5.64669764    -1.94285334     3.20029072
  173 C                    6.0000    -5.39776168    -0.79753358     4.18372428
  174 O                    8.0000    -4.37236792    -0.09611604     4.13598466
  175 C                    6.0000    -6.49717942    -1.49268500     1.98042876
  176 C                    6.0000    -6.59715369    -2.72758697     1.01764568
  177 C                    6.0000    -5.79318763    -0.24941811     1.37539653
  178 C                    6.0000    -5.25919499    -3.33541101     0.59810014
  179 N                    7.0000    -6.33637090    -0.57836545     5.07374678
  180 C                    6.0000    -6.15414691     0.47870949     6.12315280
  181 C                    6.0000    -4.90993426     0.21666548     6.93521672
  182 O                    8.0000    -4.16835938     1.15650901     7.31152886
  183 C                    6.0000    -7.36921286     0.45235396     7.05224975
  184 C                    6.0000    -7.60351720     1.55349616     8.07978725
  185 C                    6.0000    -8.80360070     1.24858744     8.96170746
  186 O                    8.0000    -8.84583656     0.39897899     9.84821104
  187 O                    8.0000    -9.78432676     1.95365664     8.60899253
  188 N                    7.0000    -4.66808912    -1.04301871     7.25932731
  189 C                    6.0000    -3.51328386    -1.48764463     8.04975417
  190 C                    6.0000    -2.20005455    -1.24671808     7.30666591
  191 O                    8.0000    -1.20713084    -0.77538977     7.89880959
  192 C                    6.0000    -3.62834996    -2.94947800     8.49565997
  193 C                    6.0000    -2.34965936    -3.32615487     9.25629844
  194 O                    8.0000    -1.97672813    -2.61604664    10.23204410
  195 N                    7.0000    -1.66928540    -4.39402443     8.84881240
  196 N                    7.0000    -2.22806998    -1.59561961     6.02857637
  197 C                    6.0000    -1.05948325    -1.39840512     5.17882612
  198 C                    6.0000    -0.68550182     0.08045389     5.17459212
  199 O                    8.0000     0.48217960     0.44634841     5.34596097
  200 C                    6.0000    -1.29594896    -1.95435465     3.77193981
  201 C                    6.0000    -0.17487880    -1.47099660     2.83519508
  202 C                    6.0000    -1.42692790    -3.46858947     3.78009126
  203 N                    7.0000    -1.69042257     0.93020213     4.99890711
  204 C                    6.0000    -1.45499834     2.38060576     4.97121690
  205 C                    6.0000    -0.86264697     2.85619175     6.28747706
  206 O                    8.0000    -0.01481274     3.78271932     6.27186365
  207 C                    6.0000    -2.76184569     3.12197201     4.68674002
  208 C                    6.0000    -3.14777049     2.88342630     3.18268483
  209 C                    6.0000    -4.35838535     3.73919139     2.86252584
  210 C                    6.0000    -4.76850167     3.56101878     1.40195468
  211 N                    7.0000    -5.97355205     4.42611363     1.17825290
  212 N                    7.0000    -1.30175442     2.30247700     7.39893810
  213 C                    6.0000    -0.74636847     2.64322305     8.71433483
  214 C                    6.0000     0.69854327     2.19419632     8.83359118
  215 O                    8.0000     1.56053902     2.92925717     9.42587985
  216 C                    6.0000    -1.59122802     2.04619752     9.85454308
  217 N                    7.0000     1.06078216     1.04101965     8.29152886
  218 C                    6.0000     2.46711663     0.58809371     8.29704607
  219 C                    6.0000     3.35118810     1.53727510     7.46704046
  220 O                    8.0000     4.50316481     1.88564361     7.82457375
  221 C                    6.0000     2.60741971    -0.82067559     7.73766595
  222 C                    6.0000     1.83458306    -1.86147246     8.53823661
  223 C                    6.0000     1.80092322    -3.18499043     7.78466299
  224 C                    6.0000     1.76161323    -4.38014199     8.72659583
  225 N                    7.0000     3.14306821    -4.82646819     9.08393608
  226 N                    7.0000     2.78820034     2.02903604     6.36220565
  227 C                    6.0000     3.55484848     2.94841174     5.50278262
  228 C                    6.0000     3.69896580     4.26509597     6.27877156
  229 O                    8.0000     4.75479517     4.93131323     6.17814892
  230 C                    6.0000     2.88682207     3.17908290     4.11087116
  231 C                    6.0000     2.98021925     1.91273143     3.19625872
  232 C                    6.0000     3.47960904     4.38880656     3.35840304
  233 C                    6.0000     2.01910177     2.07595765     1.98097628
  234 N                    7.0000     2.67559875     4.69445515     6.97301400
  235 C                    6.0000     2.82172193     5.97225931     7.73908746
  236 C                    6.0000     3.92620377     5.80112526     8.79542926
  237 O                    8.0000     4.85096257     6.61620106     9.02141286
  238 C                    6.0000     1.54837682     6.34941905     8.48558109
  239 C                    6.0000     1.79278514     7.63520865     9.31546100
  240 C                    6.0000     0.47591194     8.11065330     9.88973565
  241 O                    8.0000    -0.31802471     7.23090770    10.22103956
  242 N                    7.0000     0.24226885     9.40920988     9.95159612
  243 N                    7.0000     3.80557143     4.70848111     9.51038213
  244 C                    6.0000     4.79903123     4.38316485    10.55965615
  245 C                    6.0000     6.21231816     4.39728996    10.01834890
  246 O                    8.0000     7.18498659     4.87494073    10.64897310
  247 C                    6.0000     4.36801576     3.05830584    11.19039164
  248 C                    6.0000     4.85834310     3.12026963    12.63655089
  249 O                    8.0000     4.31694670     3.98954900    13.33882528
  250 O                    8.0000     5.81179393     2.35938978    12.87199591
  251 N                    7.0000     6.41710430     3.84408090     8.80767497
  252 C                    6.0000     7.82732986     3.77882904     8.33858216
  253 C                    6.0000     8.30919414     4.90135467     7.49007936
  254 O                    8.0000     9.55280283     5.19033628     7.56792573
  255 C                    6.0000     8.18103510     2.38887345     7.85177310
  256 C                    6.0000     7.76658473     1.88961553     6.51667482
  257 C                    6.0000     8.94171131     1.12090542     5.89448090
  258 C                    6.0000     9.30863714    -0.09031177     6.73056782
  259 N                    7.0000    10.66618162    -0.56852540     6.26856597
  260 N                    7.0000     7.51229161     5.64829536     6.77709552
  261 C                    6.0000     7.92800117     6.75056511     5.93987335
  262 C                    6.0000     7.25923787     8.05896548     6.27398280
  263 O                    8.0000     7.57223844     9.08103658     5.65410837
  264 C                    6.0000     7.62455562     6.45182191     4.45567852
  265 C                    6.0000     8.32204342     5.21127477     3.89903628
  266 C                    6.0000     9.79372913     5.47998726     3.60640723
  267 O                    8.0000    10.18300038     6.55013383     3.17894001
  268 O                    8.0000    10.51914556     4.48815110     3.86678203
  269 N                    7.0000     6.29470467     8.04207047     7.18025774
  270 C                    6.0000     5.63220197     9.23499390     7.63653053
  271 C                    6.0000     4.54592751     9.80703815     6.81326922
  272 O                    8.0000     3.97475534    10.86954792     7.17329748
  273 N                    7.0000     4.15321116     9.12124526     5.72597396
  274 C                    6.0000     3.06916092     9.66900065     4.89563420
  275 C                    6.0000     1.71077847     9.38503179     5.51355636
  276 O                    8.0000     1.36268380     8.21982370     5.77538303
  277 C                    6.0000     3.19668480     8.99671957     3.46687222
  278 C                    6.0000     4.63019592     9.20937199     2.89660138
  279 C                    6.0000     2.10012374     9.50115798     2.50603679
  280 C                    6.0000     4.90560540     8.16875465     1.75482243
  281 N                    7.0000     0.91833451    10.42809259     5.73333294
  282 C                    6.0000    -0.43923744    10.30492936     6.29220522
  283 C                    6.0000    -1.29546101     9.38857771     5.43802091
  284 O                    8.0000    -1.26770244     9.54172732     4.18858277
  285 C                    6.0000    -0.93825439    11.77600820     6.15690133
  286 C                    6.0000     0.31392980    12.58512266     6.32313478
  287 C                    6.0000     1.29972775    11.84010054     5.43400913
  288 N                    7.0000    -2.06731818     8.51093662     6.02997415
  289 C                    6.0000    -2.90255778     7.59191604     5.23971597
  290 C                    6.0000    -3.84719597     8.29713121     4.30364210
  291 O                    8.0000    -4.18000061     7.80157875     3.19240593
  292 C                    6.0000    -3.57645822     6.72125543     6.29580038
  293 C                    6.0000    -2.56683378     6.72659067     7.44054840
  294 C                    6.0000    -2.17110972     8.21780758     7.48140919
  295 N                    7.0000    -4.32450232     9.46164862     4.67004604
  296 C                    6.0000    -5.30660623    10.19295302     3.82438606
  297 C                    6.0000    -4.69020801    10.68813859     2.52233826
  298 O                    8.0000    -5.38387250    10.98679219     1.51027818
  299 C                    6.0000    -5.99273417    11.27063376     4.68096745
  300 C                    6.0000    -6.07587915    12.60533802     3.96409199
  301 O                    8.0000    -4.99206282    13.15152849     3.65135547
  302 O                    8.0000    -7.20455486    13.10459612     3.68269811
  303 N                    7.0000    -3.36911566    10.69981389     2.45859898
  304 C                    6.0000    -2.69755411    11.14182935     1.21251495
  305 C                    6.0000    -2.31861081     9.95414297     0.30771162
  306 O                    8.0000    -1.96412525    10.17715322    -0.84398210
  307 C                    6.0000    -1.37154189    11.86404139     1.53838359
  308 C                    6.0000    -1.69287648    13.11587490     2.37354941
  309 C                    6.0000    -0.44388630    13.90532424     2.72012444
  310 O                    8.0000    -0.52348790    14.76481422     3.60604179
  311 N                    7.0000     0.64793377    13.60906162     2.06395419
  312 N                    7.0000    -2.42397187     8.74272655     0.80578219
  313 C                    6.0000    -2.05522177     7.54902214     0.08428157
  314 C                    6.0000    -3.11880261     6.98308694    -0.83254673
  315 O                    8.0000    -4.22204338     6.60991810    -0.46212828
  316 C                    6.0000    -1.62267001     6.42318725     1.05954142
  317 C                    6.0000    -0.51959846     6.86327780     2.05060321
  318 C                    6.0000    -0.15265483     5.72285527     2.95895435
  319 O                    8.0000    -0.29265302     4.55814502     2.54729485
  320 N                    7.0000     0.29459958     5.96367621     4.17129991
  321 N                    7.0000    -2.70422450     6.72782646    -2.07150439
  322 C                    6.0000    -3.57576103     6.00629459    -3.05128234
  323 C                    6.0000    -2.78335193     4.77942974    -3.44661823
  324 O                    8.0000    -1.62919569     4.98622417    -3.99909758
  325 C                    6.0000    -4.00712059     6.94212462    -4.15373782
  326 C                    6.0000    -4.52576626     6.32620353    -5.44195282
  327 C                    6.0000    -5.05690223     7.39920101    -6.37227533
  328 N                    7.0000    -5.43351428     6.83948876    -7.66689480
  329 C                    6.0000    -4.73190826     7.01455329    -8.79363674
  330 N                    7.0000    -3.68434661     7.83662467    -8.88237924
  331 N                    7.0000    -5.02611302     6.26561734    -9.86160795
  332 N                    7.0000    -3.25323259     3.57076473    -3.14472077
  333 C                    6.0000    -2.47761806     2.34623792    -3.46760338
  334 C                    6.0000    -3.07380368     1.66008075    -4.69104608
  335 O                    8.0000    -4.30215573     1.52132488    -4.76124621
  336 C                    6.0000    -2.40454613     1.39853406    -2.27791271
  337 C                    6.0000    -1.61542864     1.78332232    -1.05474855
  338 C                    6.0000    -1.96524318     0.83722612     0.08907869
  339 C                    6.0000    -0.12689017     1.72106186    -1.41060647
  340 N                    7.0000    -2.21201935     1.33797730    -5.65095605
  341 C                    6.0000    -2.61916123     0.72404188    -6.90967595
  342 C                    6.0000    -1.92702168    -0.61399185    -7.14111401
  343 O                    8.0000    -0.72596532    -0.75166609    -7.03058604
  344 C                    6.0000    -2.26403245     1.66168708    -8.13910307
  345 C                    6.0000    -2.73593168     3.10711292    -7.91579777
  346 C                    6.0000    -2.80810456     1.07781467    -9.47774998
  347 C                    6.0000    -4.26777565     3.18651849    -7.66769735
  348 N                    7.0000    -2.75885261    -1.62443762    -7.51006611
  349 C                    6.0000    -2.24670766    -2.96782312    -7.82349384
  350 C                    6.0000    -3.13677811    -3.48785020    -8.96863900
  351 O                    8.0000    -4.36356236    -3.38915403    -8.94615650
  352 C                    6.0000    -2.29102772    -3.92095387    -6.64514648
  353 C                    6.0000    -1.81304365    -5.32993378    -6.94639194
  354 C                    6.0000    -0.44554669    -5.59869860    -7.02499564
  355 C                    6.0000    -2.75288788    -6.34490431    -7.11280601
  356 C                    6.0000     0.00571730    -6.89166591    -7.29660813
  357 C                    6.0000    -2.32686172    -7.65458394    -7.37583068
  358 C                    6.0000    -0.96443306    -7.91510805    -7.41253685
  359 N                    7.0000    -2.43281189    -3.94623607    -9.97472844
  360 C                    6.0000    -3.03859887    -4.55393998   -11.17583505
  361 C                    6.0000    -4.16419518    -3.68164081   -11.71164763
  362 O                    8.0000    -5.27477209    -4.15099037   -12.00001704
  363 C                    6.0000    -3.49293114    -5.93540270   -10.82496622
  364 N                    7.0000    -3.87206487    -2.41557492   -11.78574924
  365 C                    6.0000    -4.70061547    -1.33560054   -12.23277075
  366 C                    6.0000    -5.96555608    -1.06493980   -11.46121063
  367 O                    8.0000    -6.88249253    -0.39733844   -11.99095112
  368 N                    7.0000    -6.04000581    -1.49713844   -10.23156086
  369 C                    6.0000    -7.20571390    -1.24408291    -9.37462531
  370 C                    6.0000    -6.73160852    -0.34999008    -8.21405687
  371 O                    8.0000    -5.62316564    -0.55408046    -7.74212519
  372 C                    6.0000    -7.72115713    -2.52053309    -8.75725166
  373 C                    6.0000    -8.20829566    -3.57787920    -9.77439239
  374 C                    6.0000    -8.52835541    -4.82199128    -8.97391074
  375 C                    6.0000    -7.54964213    -5.94177850    -9.28256251
  376 N                    7.0000    -7.65123767    -6.21038724   -10.76421047
  377 N                    7.0000    -7.54863369     0.57379566    -7.78500003
  378 C                    6.0000    -7.19531074     1.38876627    -6.58782177
  379 C                    6.0000    -7.67911521     0.54085192    -5.41485652
  380 O                    8.0000    -8.83855754     0.05168896    -5.46467698
  381 C                    6.0000    -7.87501307     2.73561198    -6.62965951
  382 C                    6.0000    -7.34242266     3.61252683    -5.47794653
  383 C                    6.0000    -7.97721748     4.98974318    -5.56171206
  384 O                    8.0000    -8.67146451     5.38883036    -4.63488927
  385 N                    7.0000    -7.70954105     5.64794195    -6.68660793
  386 N                    7.0000    -6.84482856     0.32590395    -4.42714342
  387 C                    6.0000    -7.17683043    -0.54855108    -3.28973885
  388 C                    6.0000    -8.06008727     0.19462850    -2.30103947
  389 O                    8.0000    -7.78188297     1.35014613    -2.05189017
  390 C                    6.0000    -5.87303770    -1.11218692    -2.71715682
  391 C                    6.0000    -4.91270385    -1.75555237    -3.71757264
  392 C                    6.0000    -3.75096695    -2.42865463    -2.98099290
  393 C                    6.0000    -5.58786298    -2.80441125    -4.56579854
  394 N                    7.0000    -9.08098540    -0.47838831    -1.76771650
  395 C                    6.0000   -10.01587680     0.18909691    -0.83656047
  396 C                    6.0000    -9.69024517    -0.19366670     0.58072216
  397 O                    8.0000    -9.37422403    -1.35460805     0.82905825
  398 C                    6.0000   -11.41668480    -0.25267106    -1.21131375
  399 C                    6.0000   -12.58666977     0.16839927    -0.29185034
  400 C                    6.0000   -13.81453341     0.52685729    -1.10369129
  401 O                    8.0000   -14.91815481     0.76792230    -0.65936993
  402 O                    8.0000   -13.47408634     0.53938739    -2.32826868
  403 N                    7.0000    -9.74799198     0.71001081     1.52672970
  404 C                    6.0000    -9.38160601     0.51744576     2.92563856
  405 C                    6.0000    -9.89201848    -0.68313449     3.70369651
  406 O                    8.0000    -9.12790812    -1.21817762     4.55672712
  407 C                    6.0000    -9.71421895     1.82733134     3.69961815
  408 C                    6.0000    -8.67207290     2.90307070     3.46912859
  409 O                    8.0000    -8.83498716     4.02676195     3.99346237
  410 O                    8.0000    -7.68710621     2.68867574     2.74908315
  411 N                    7.0000   -11.14796596    -1.03090730     3.54073639
  412 C                    6.0000   -11.80875221    -2.13231625     4.26479638
  413 C                    6.0000   -11.60278189    -3.50063356     3.70662082
  414 O                    8.0000   -11.96171544    -4.51528355     4.34649745
  415 N                    7.0000   -11.01008456    -3.63658628     2.52591437
  416 C                    6.0000   -10.70325717    -4.95921178     1.94422051
  417 C                    6.0000    -9.36161089    -5.41665276     2.49643695
  418 O                    8.0000    -8.56549942    -4.59345671     2.99756947
  419 C                    6.0000   -10.61626391    -4.90772301     0.41717595
  420 C                    6.0000   -11.87875061    -4.34628860    -0.26781144
  421 C                    6.0000   -12.96442544    -5.44901373    -0.10702134
  422 N                    7.0000   -13.96562418    -4.86006749     0.75380002
  423 C                    6.0000   -14.56904439    -5.19970931     1.85056092
  424 N                    7.0000   -14.38187354    -6.32250178     2.51817170
  425 N                    7.0000   -15.42526898    -4.30087850     2.40463639
  426 N                    7.0000    -9.05967987    -6.68003019     2.33051790
  427 C                    6.0000    -7.77514066    -7.28763507     2.74616355
  428 C                    6.0000    -6.94409317    -7.49732066     1.45823458
  429 O                    8.0000    -7.47815729    -7.42008024     0.35658698
  430 C                    6.0000    -7.99589176    -8.66073271     3.44984376
  431 O                    8.0000    -8.68052464    -9.45368500     2.38592812
  432 C                    6.0000    -8.84839112    -8.66128134     4.70296767
  433 N                    7.0000    -5.66108338    -7.73065900     1.64276941
  434 C                    6.0000    -4.74161319    -8.01220127     0.52691031
  435 C                    6.0000    -5.21506363    -9.28382878    -0.17206833
  436 O                    8.0000    -5.20024364    -9.31661040    -1.37258644
  437 C                    6.0000    -3.31363217    -8.13450475     1.09960052
  438 C                    6.0000    -2.70499211    -6.93617133     1.82710536
  439 C                    6.0000    -1.27792842    -7.25726230     2.30066086
  440 C                    6.0000    -2.54720565    -5.75566382     0.87135672
  441 N                    7.0000    -5.73597120   -10.25727266     0.60355614
  442 C                    6.0000    -6.18531642   -11.49949598    -0.07332428
  443 C                    6.0000    -7.33319413   -11.24773786    -1.02565858
  444 O                    8.0000    -7.46533202   -11.95510288    -2.06964675
  445 C                    6.0000    -6.56950631   -12.58403252     0.94308786
  446 O                    8.0000    -7.60187642   -12.13949894     1.77710756
  447 N                    7.0000    -8.15005695   -10.25204576    -0.73309514
  448 C                    6.0000    -9.30751358    -9.91419664    -1.60368237
  449 C                    6.0000    -8.84583159    -9.65426104    -3.04095348
  450 O                    8.0000    -9.56828051    -9.87030584    -4.01834347
  451 C                    6.0000   -10.13969246    -8.76955168    -1.07674005
  452 C                    6.0000   -11.00754193    -9.05196424     0.12072328
  453 O                    8.0000   -11.36119492    -8.10161850     0.84384606
  454 O                    8.0000   -11.32884536   -10.26930695     0.29508446
  455 N                    7.0000    -7.72521042    -8.99955735    -3.15149879
  456 C                    6.0000    -7.09637532    -8.65830679    -4.42591806
  457 C                    6.0000    -6.11959424    -9.70928364    -4.90362130
  458 O                    8.0000    -5.47581113    -9.47293704    -5.94561055
  459 C                    6.0000    -6.39426210    -7.31142269    -4.23909933
  460 C                    6.0000    -7.33758668    -6.17445662    -3.92529703
  461 C                    6.0000    -7.45783121    -5.66865665    -2.63062849
  462 C                    6.0000    -8.04420199    -5.55997905    -4.95583675
  463 C                    6.0000    -8.32717851    -4.60422866    -2.36960484
  464 C                    6.0000    -8.90444265    -4.50215973    -4.70699485
  465 C                    6.0000    -9.03499580    -4.03267012    -3.40172960
  466 O                    8.0000    -9.85747021    -2.93493902    -3.23135272
  467 N                    7.0000    -5.95805570   -10.84325032    -4.25658045
  468 C                    6.0000    -4.99361418   -11.84253762    -4.76055013
  469 C                    6.0000    -3.59080052   -11.25571349    -4.85776263
  470 O                    8.0000    -2.85492431   -11.49881028    -5.83505335
  471 C                    6.0000    -5.45447438   -12.46479917    -6.10449337
  472 C                    6.0000    -4.80838020   -13.81257504    -6.42080731
  473 O                    8.0000    -4.50654181   -14.17958087    -7.59698175
  474 N                    7.0000    -4.58479223   -14.63247481    -5.39208879
  475 N                    7.0000    -3.16848376   -10.54770059    -3.82992397
  476 C                    6.0000    -1.77824433   -10.00437717    -3.78068997
  477 C                    6.0000    -0.92082241   -11.09200008    -3.13899451
  478 O                    8.0000    -1.24690010   -11.40842354    -1.95634978
  479 C                    6.0000    -1.78807467    -8.69780212    -2.92147289
  480 C                    6.0000    -2.54169837    -7.56775234    -3.68220990
  481 C                    6.0000    -0.38344263    -8.20538244    -2.51108564
  482 C                    6.0000    -2.63014016    -6.29925646    -2.79345950
  483 N                    7.0000     0.02913025   -11.63740229    -3.84478439
  484 C                    6.0000     0.88676382   -12.75459984    -3.35131273
  485 C                    6.0000     2.26164238   -12.20777194    -2.96009516
  486 O                    8.0000     2.55940186   -11.03290911    -3.23950462
  487 C                    6.0000     0.94616274   -13.85367679    -4.39046173
  488 C                    6.0000    -0.21347967   -14.83928713    -4.52212320
  489 C                    6.0000     0.26738478   -16.07729658    -5.28099275
  490 O                    8.0000    -0.43341936   -16.77551155    -6.02478602
  491 N                    7.0000     1.56472017   -16.39733388    -5.12433386
  492 N                    7.0000     3.08496338   -13.01972264    -2.30110913
  493 C                    6.0000     4.38245538   -12.59532846    -1.82235126
  494 C                    6.0000     5.18726018   -12.02371004    -2.98742105
  495 O                    8.0000     5.09887531   -12.44199114    -4.13032920
  496 C                    6.0000     5.19803936   -13.67420868    -1.12194334
  497 C                    6.0000     5.28479599   -14.98474898    -1.92897210
  498 C                    6.0000     6.39514755   -15.84087177    -1.31868185
  499 C                    6.0000     6.25286227   -17.32118621    -1.53275906
  500 N                    7.0000     6.55899276   -17.65860420    -2.95942728
  501 N                    7.0000     5.94129660   -10.97638108    -2.62382081
  502 C                    6.0000     6.81381410   -10.23708752    -3.49857691
  503 C                    6.0000     6.18760355    -9.42959209    -4.59711797
  504 O                    8.0000     6.86399146    -8.93378056    -5.53196305
  505 C                    6.0000     7.95785958   -11.14720766    -4.03084214
  506 C                    6.0000     8.95546421   -11.42638717    -2.86493099
  507 C                    6.0000     9.18488108   -12.88929938    -2.67439027
  508 O                    8.0000     9.23681074   -13.67241766    -3.61364267
  509 O                    8.0000     9.30801080   -13.18638210    -1.46400317
  510 N                    7.0000     4.90419216    -9.15551795    -4.42257978
  511 C                    6.0000     4.13010590    -8.28831564    -5.31911623
  512 C                    6.0000     4.61922661    -6.83823111    -5.09081427
  513 O                    8.0000     5.14504034    -6.52295798    -4.02915482
  514 C                    6.0000     2.66191878    -8.33312598    -4.87624874
  515 O                    8.0000     2.10430332    -9.59814902    -5.24671159
  516 N                    7.0000     4.37753334    -5.97677280    -6.04249328
  517 C                    6.0000     4.70636312    -4.55076049    -5.92407919
  518 C                    6.0000     3.41680011    -3.73927199    -6.03969778
  519 O                    8.0000     2.65089947    -3.97671949    -6.99954147
  520 C                    6.0000     5.75234310    -4.06881178    -7.02438883
  521 O                    8.0000     6.95940005    -4.87846945    -6.78600053
  522 C                    6.0000     6.01026601    -2.56521928    -6.88606170
  523 N                    7.0000     3.14578019    -2.86238819    -5.06636485
  524 C                    6.0000     1.98050833    -1.97652635    -5.17152803
  525 C                    6.0000     2.54039455    -0.59479494    -5.56997090
  526 O                    8.0000     3.72389967    -0.40208377    -5.24791650
  527 C                    6.0000     1.30297965    -1.78234224    -3.79982747
  528 C                    6.0000     1.10378517    -2.97723401    -2.91213372
  529 C                    6.0000     0.22256651    -2.64855124    -1.69482714
  530 C                    6.0000     0.49718406    -4.11353563    -3.69376709
  531 N                    7.0000     1.76088224     0.21155245    -6.19751807
  532 C                    6.0000     2.24969305     1.56455602    -6.55659093
  533 C                    6.0000     1.56187370     2.52669370    -5.58958337
  534 O                    8.0000     0.33316585     2.44897486    -5.37727978
  535 C                    6.0000     1.78240990     1.92234789    -7.98962982
  536 C                    6.0000     2.53552056     1.03478020    -8.94335720
  537 N                    7.0000     3.74587822     1.37401955    -9.46615925
  538 C                    6.0000     2.21022466    -0.16846801    -9.45801954
  539 C                    6.0000     4.18156616     0.39246524   -10.24868986
  540 N                    7.0000     3.26099336    -0.56786406   -10.23233919
  541 N                    7.0000     2.31927515     3.46582485    -5.04762700
  542 C                    6.0000     1.77134036     4.49127358    -4.16603618
  543 C                    6.0000     1.71425027     5.82657663    -4.84569896
  544 O                    8.0000     2.81808507     6.33141705    -5.25960581
  545 C                    6.0000     2.66962726     4.55194647    -2.88703953
  546 C                    6.0000     2.29260156     5.72866338    -1.95416497
  547 C                    6.0000     0.91313437     5.50390572    -1.39488126
  548 C                    6.0000     3.32007265     5.77326101    -0.81039786
  549 N                    7.0000     0.56681365     6.38212142    -5.06477242
  550 C                    6.0000     0.46587755     7.75515949    -5.63834751
  551 C                    6.0000    -0.00616472     8.60901899    -4.45252247
  552 O                    8.0000    -0.84807039     8.13470030    -3.65742334
  553 C                    6.0000    -0.47675531     7.78104938    -6.83147030
  554 C                    6.0000    -0.67795189     9.17516609    -7.41902840
  555 C                    6.0000    -0.09916306     6.78990254    -7.90703483
  556 N                    7.0000     0.52469285     9.80126504    -4.31443330
  557 C                    6.0000     0.10187525    10.70327575    -3.21931323
  558 C                    6.0000    -0.94791900    11.65954440    -3.71979629
  559 O                    8.0000    -0.82856840    12.22898245    -4.82336175
  560 C                    6.0000     1.37446625    11.44381861    -2.67800978
  561 C                    6.0000     1.74440938    10.89788738    -1.28676208
  562 C                    6.0000     1.52229388     9.39088702    -1.29435200
  563 C                    6.0000     3.16101671    11.27259651    -0.93843786
  564 N                    7.0000    -1.93813629    11.90522027    -2.94627248
  565 C                    6.0000    -3.01280051    12.86542487    -3.27580235
  566 C                    6.0000    -2.93258865    13.95012812    -2.20378653
  567 O                    8.0000    -3.50442956    13.62653548    -1.11445335
  568 C                    6.0000    -4.37269360    12.16511051    -3.18155484
  569 C                    6.0000    -5.39669135    13.00062742    -2.41547580
  570 C                    6.0000    -6.45558285    12.12797810    -1.83944026
  571 N                    7.0000    -5.89758769    10.78883819    -1.60545157
  572 C                    6.0000    -6.77189161     9.76213698    -1.63515479
  573 N                    7.0000    -8.01646296    10.01832560    -1.99691927
  574 N                    7.0000    -6.36559142     8.58998036    -1.20143825
  575 N                    7.0000    -2.32972613    15.06835757    -2.43782211
  576 C                    6.0000    -2.24856343    16.10490734    -1.37870352
  577 C                    6.0000    -3.52403641    16.93606329    -1.37132349
  578 O                    8.0000    -4.19281851    17.09478629    -2.40371319
  579 C                    6.0000    -0.94685169    16.87236074    -1.55787617
  580 C                    6.0000     0.29350877    16.42002682    -0.80594468
  581 C                    6.0000     0.40180532    14.90602995    -0.70745952
  582 C                    6.0000     1.52306314    16.96467200    -1.53435299
  583 N                    7.0000    -3.83752134    17.42162089    -0.18008799
  584 C                    6.0000    -5.03774281    18.24465725     0.04055780
  585 C                    6.0000    -4.63625792    19.71646549     0.01900773
  586 O                    8.0000    -4.19045377    20.27061428     1.04083148
  587 C                    6.0000    -5.73540634    17.88245833     1.35082134
  588 C                    6.0000    -7.25139695    18.01315909     1.33987644
  589 C                    6.0000    -7.92364662    17.18434758     2.38327515
  590 N                    7.0000    -8.15018206    17.93128695     3.61756129
  591 C                    6.0000    -7.30609034    17.88416240     4.65536592
  592 N                    7.0000    -6.25492727    17.06427903     4.64534219
  593 N                    7.0000    -7.48046781    18.70972881     5.68568800
  594 N                    7.0000    -4.76217711    20.30760634    -1.16320074
  595 C                    6.0000    -4.44505716    21.71087998    -1.39115471
  596 C                    6.0000    -3.36793797    21.96650684    -2.42642770
  597 O                    8.0000    -2.23454579    21.46357479    -2.34186688
  598 N                    7.0000    -3.74072923    22.78861165    -3.38908930
  599 C                    6.0000    -2.88391492    23.21479259    -4.50525149
  600 C                    6.0000    -3.73292822    24.04837030    -5.47863405
  601 O                    8.0000    -3.57341473    23.81326776    -6.69271817
  602 O                    8.0000    -4.51676875    24.86669824    -4.97749095
  603 H                    1.0000     3.78354011   -12.74126170     4.94002893
  604 H                    1.0000     5.46226627   -12.37829628     5.56845854
  605 H                    1.0000     6.00550291   -12.85128437     3.41361396
  606 H                    1.0000     4.73060181   -12.85890374     1.52973313
  607 H                    1.0000     3.54095260   -13.31921702     2.93725228
  608 H                    1.0000     2.72561855   -10.94683029     2.95115133
  609 H                    1.0000     3.75948575   -10.59100327     1.46671668
  610 H                    1.0000    -0.17231480   -10.99888007     1.04426369
  611 H                    1.0000     1.30671624    -9.87603503     1.17451784
  612 H                    1.0000     0.82806782   -10.59812943    -0.47347632
  613 H                    1.0000     7.11412946   -11.53954165     1.94047786
  614 H                    1.0000     7.13006848    -8.49882245     2.74365516
  615 H                    1.0000     9.22304855    -9.56179355     2.82309250
  616 H                    1.0000     8.89037505   -10.36322462     1.09805430
  617 H                    1.0000     9.13638123    -8.27636237     0.01500005
  618 H                    1.0000     9.36399715    -7.39732830     1.65694393
  619 H                    1.0000    10.60291908   -10.09681233    -0.40907884
  620 H                    1.0000    12.40197486    -9.89449411     0.07861320
  621 H                    1.0000     6.45133197    -6.91907866     1.58964352
  622 H                    1.0000     5.76724204    -7.59854671    -1.36922960
  623 H                    1.0000     3.90019209    -5.98639533    -1.39907695
  624 H                    1.0000     3.85571483    -6.18534106     1.67003591
  625 H                    1.0000     4.64417740    -4.76781748     0.70662540
  626 H                    1.0000     3.46729305    -8.40545645    -1.45985230
  627 H                    1.0000     3.85057823    -8.60213200     0.35114061
  628 H                    1.0000     2.31255900    -7.69866011    -0.18239186
  629 H                    1.0000     1.93728943    -5.34843267    -0.40610759
  630 H                    1.0000     1.81464202    -5.11034164     1.43604913
  631 H                    1.0000     2.59079978    -3.79095352     0.37623606
  632 H                    1.0000     5.79443230    -5.53524118    -2.67338019
  633 H                    1.0000     7.88236045    -3.50778339    -1.37151844
  634 H                    1.0000     7.44151336    -4.39711505    -4.33755372
  635 H                    1.0000     8.71300817    -3.16471961    -3.66859142
  636 H                    1.0000     7.89702301    -6.71734745    -4.22949229
  637 H                    1.0000    10.48669151    -3.87725853    -2.19045449
  638 H                    1.0000     9.51069378    -8.58632602    -3.70198158
  639 H                    1.0000    12.07022233    -5.78474300    -1.60268397
  640 H                    1.0000    11.63273772    -8.02841070    -2.58514031
  641 H                    1.0000     7.35801601    -1.29868197    -1.44655710
  642 H                    1.0000     4.72862488    -0.73023539    -2.98913296
  643 H                    1.0000     5.87259615     0.74942055    -0.50530257
  644 H                    1.0000     3.07647323     1.28668633    -1.28596921
  645 H                    1.0000     4.51922237     2.45651236    -1.16240767
  646 H                    1.0000     4.18583370     1.55428665    -2.75654784
  647 H                    1.0000     3.92555779    -1.56149963    -0.98852246
  648 H                    1.0000     4.82623889    -1.03554696     0.55337537
  649 H                    1.0000     3.25779551    -0.16809348     0.04946036
  650 H                    1.0000     5.35306168     0.35053968    -4.85254750
  651 H                    1.0000     8.11276358     1.88231754    -4.86863060
  652 H                    1.0000     7.49394490     0.10264535    -6.56297513
  653 H                    1.0000     6.05563509     1.28034207    -7.07383465
  654 H                    1.0000     7.59366553     2.92024643    -7.89405388
  655 H                    1.0000     9.06267251     1.95930960    -7.29416245
  656 H                    1.0000     8.23433457    -0.03261532    -8.73656239
  657 H                    1.0000     6.94580691     1.17198644    -9.44762858
  658 H                    1.0000     8.79766779     2.62691393   -10.25666393
  659 H                    1.0000    10.03258770     1.36961201    -9.67100497
  660 H                    1.0000     7.89519859     0.02161766   -11.15339198
  661 H                    1.0000     8.51999699     1.42582931   -12.14463969
  662 H                    1.0000     8.22685293     4.01927179    -4.65826346
  663 H                    1.0000     5.48646600     5.46697379    -4.78679194
  664 H                    1.0000     6.45680241     7.19365486    -3.34135249
  665 H                    1.0000     8.76124735     6.15465223    -4.93586487
  666 H                    1.0000     7.17350380     4.36786049    -2.60340484
  667 H                    1.0000     8.20075689     5.68606352    -1.78340609
  668 H                    1.0000     6.34458432     5.73200197    -1.64585544
  669 H                    1.0000     5.74152970     7.85106123    -5.65467240
  670 H                    1.0000     6.72668841     7.46814333    -8.51620941
  671 H                    1.0000     5.42040021     9.79121491    -6.92386249
  672 H                    1.0000     5.85996191     9.77161313    -8.79412776
  673 H                    1.0000     3.77651863     8.15312982    -7.25342504
  674 H                    1.0000     2.17930468     9.39481417    -8.44991536
  675 H                    1.0000     3.54269172    10.65938461    -8.36414202
  676 H                    1.0000     3.30626639     9.64834612    -9.90957015
  677 H                    1.0000     3.52090731     6.67100279    -9.05401970
  678 H                    1.0000     4.14697900     7.90106361   -10.30313370
  679 H                    1.0000     5.34701319     7.00073756    -9.20053509
  680 H                    1.0000     8.43383637     8.26784834    -5.61869555
  681 H                    1.0000    10.25133974    10.05875434    -7.49225485
  682 H                    1.0000    11.20792190    10.96351586    -5.33380062
  683 H                    1.0000    10.42757968     8.19847750    -4.74552315
  684 H                    1.0000     8.30867615    10.52300591    -4.50123980
  685 H                    1.0000     9.45252778    11.97659500    -4.29154983
  686 H                    1.0000     8.75094164    11.57823584    -5.96950120
  687 H                    1.0000     9.85978307     6.96776471    -7.27913310
  688 H                    1.0000    11.33476560     5.29975434    -7.96402044
  689 H                    1.0000    12.75728004     6.57554147    -7.83492946
  690 H                    1.0000    10.88591055     6.33377582    -5.01115550
  691 H                    1.0000    13.15955934     4.71751602    -3.74914098
  692 H                    1.0000    12.45582628     6.77272341    -2.58410631
  693 H                    1.0000    10.71340809     6.08696233    -2.44641619
  694 H                    1.0000    11.58732630     4.11960626    -1.12191170
  695 H                    1.0000    13.31615090     4.78902669    -1.24614823
  696 H                    1.0000    12.08835592     7.05401094    -0.33205684
  697 H                    1.0000    10.88408605     5.74542088     0.34145004
  698 H                    1.0000    13.88395266     6.09199529     0.90806530
  699 H                    1.0000    12.37136356     6.26620685     2.05230926
  700 H                    1.0000    12.86249987     3.65336126     0.66580089
  701 H                    1.0000    13.93793827     4.13458402     2.06459646
  702 H                    1.0000    12.68983711     2.55150635    -3.01668949
  703 H                    1.0000     9.69142653     1.78637887    -3.39604590
  704 H                    1.0000    12.11864872    -0.16023620    -3.75676741
  705 H                    1.0000     9.87429756     0.39498052    -5.66340549
  706 H                    1.0000    10.06157642    -1.64429708    -4.54329851
  707 H                    1.0000    10.57275257    -1.56056083    -2.75529268
  708 H                    1.0000     9.10421672    -0.58315561    -3.35068178
  709 H                    1.0000     8.70771066     1.00845842    -1.45683909
  710 H                    1.0000    10.84333482     0.52321256     0.86428164
  711 H                    1.0000     9.93235212     1.95014245     1.98350686
  712 H                    1.0000     7.25727463     0.35608525     1.67769146
  713 H                    1.0000     8.52583363     0.27201347     3.04688721
  714 H                    1.0000     8.23879011     2.54569183    -0.47530372
  715 H                    1.0000     7.54043648     3.17776705     1.13033617
  716 H                    1.0000     9.26263957     3.65789637     0.61080075
  717 H                    1.0000     6.36228981     1.63907719     3.60012352
  718 H                    1.0000     7.96932638     2.55289423     3.81843130
  719 H                    1.0000     6.91246694     2.87270386     2.31936467
  720 H                    1.0000    10.86065249    -1.28010318     2.04775494
  721 H                    1.0000     8.91078845    -3.43888892     0.80290576
  722 H                    1.0000    10.64086849    -5.12425492     1.63489288
  723 H                    1.0000    10.80747140    -3.87517911     3.82585149
  724 H                    1.0000    11.62926081    -4.46514518    -0.27345732
  725 H                    1.0000    11.64192055    -2.66169299     0.18771333
  726 H                    1.0000    12.88468180    -3.82457982     0.94247378
  727 H                    1.0000     7.40490823    -4.46179550     2.04048059
  728 H                    1.0000     7.26124157    -3.51283582     5.01523599
  729 H                    1.0000     5.58727862    -3.28387691     2.57284066
  730 H                    1.0000     4.82001611    -4.33392682     4.13211029
  731 H                    1.0000     4.14086486    -2.69327100     5.14089150
  732 H                    1.0000     5.16343992    -0.92138962     5.80842589
  733 H                    1.0000     6.62818054    -1.50643159     4.81971504
  734 H                    1.0000     5.43089503    -0.28845366     4.07847006
  735 H                    1.0000     2.72167419    -2.26829365     3.27530278
  736 H                    1.0000     3.74523721    -0.72662266     3.07315593
  737 H                    1.0000     4.15748023    -2.25351036     2.09076741
  738 H                    1.0000     6.41309249    -5.06445213     6.44018420
  739 H                    1.0000     6.29576980    -7.95744019     5.12722166
  740 H                    1.0000     7.02236534    -7.05240158     7.94448214
  741 H                    1.0000     6.49630055    -8.79706074     7.44556278
  742 H                    1.0000     8.31932498    -8.70341573     5.63943094
  743 H                    1.0000     8.91732741    -7.11781905     6.56105443
  744 H                    1.0000     8.52738382    -7.80567100     9.01528655
  745 H                    1.0000     4.34789225    -8.59959281     4.85755472
  746 H                    1.0000     2.17965091    -7.70780723     6.84251837
  747 H                    1.0000     0.59910497    -7.27364238     4.95825412
  748 H                    1.0000     1.21442546    -5.21982379     5.43272841
  749 H                    1.0000     3.03383312    -5.57402597     5.26064890
  750 H                    1.0000     1.99197797    -5.29450107     3.74313227
  751 H                    1.0000     1.26744999    -8.62106775     3.10946622
  752 H                    1.0000     1.86754413    -6.94834669     2.55523314
  753 H                    1.0000     3.06392090    -8.16944670     3.29279944
  754 H                    1.0000     0.16130547    -8.79979948     6.40754299
  755 H                    1.0000     0.60704596   -11.73176584     5.47614788
  756 H                    1.0000    -1.16405573   -10.47198397     7.69026187
  757 H                    1.0000    -1.39319662   -12.21338307     6.94706474
  758 H                    1.0000     1.04197526   -11.11145529     8.50202275
  759 H                    1.0000    -0.29422592   -12.41125079     9.01195936
  760 H                    1.0000     2.36042708   -12.61297287     9.32720048
  761 H                    1.0000    -2.58379445   -10.58869700     2.42387687
  762 H                    1.0000    -3.57209195   -13.48711856     3.14437053
  763 H                    1.0000    -3.31476719   -12.79098975     1.48996599
  764 H                    1.0000    -1.44627978   -14.46310903     2.46716162
  765 H                    1.0000    -0.82297217   -12.92304781     1.73546137
  766 H                    1.0000     0.15750824   -12.82885299     4.02907933
  767 H                    1.0000    -1.24599075   -13.62587693     4.82287469
  768 H                    1.0000    -3.25623401   -11.84720019     5.67613945
  769 H                    1.0000    -6.20365114   -11.30572640     5.27506149
  770 H                    1.0000    -6.05604896   -11.43178689     7.97172688
  771 H                    1.0000    -5.82261694   -12.95997054     6.89986987
  772 H                    1.0000    -3.56205300   -12.92475855     7.18767294
  773 H                    1.0000    -3.38929498    -9.33829459     5.69326813
  774 H                    1.0000    -4.65349416    -7.42208226     7.68142616
  775 H                    1.0000    -2.34428547    -7.30942070     5.53919429
  776 H                    1.0000    -2.89015384    -5.77217808     6.45548475
  777 H                    1.0000    -3.63481719    -7.70290542     8.76046550
  778 H                    1.0000    -5.69053186    -5.51370600     7.34699952
  779 H                    1.0000    -7.22299881    -5.32581176     4.73261354
  780 H                    1.0000    -8.39171401    -3.37870225     5.92225236
  781 H                    1.0000    -7.28506947    -3.50245359     8.48860927
  782 H                    1.0000    -8.84570044    -5.94706553     6.44301171
  783 H                    1.0000    -8.06060561    -5.54932762     8.08335339
  784 H                    1.0000    -9.56336485    -4.60708660     7.51738281
  785 H                    1.0000    -7.29869205    -3.36317388     3.53714997
  786 H                    1.0000    -4.62760164    -2.27973404     2.81616047
  787 H                    1.0000    -7.56458202    -1.17899826     2.22915228
  788 H                    1.0000    -7.20271871    -3.53726502     1.54425079
  789 H                    1.0000    -7.08443784    -2.34429619     0.06095874
  790 H                    1.0000    -5.60174673    -0.42323356     0.26510919
  791 H                    1.0000    -6.45954323     0.66610941     1.50719843
  792 H                    1.0000    -4.80079279    -0.07761304     1.90946669
  793 H                    1.0000    -5.41342167    -4.00263027    -0.31328910
  794 H                    1.0000    -4.52754121    -2.50067253     0.33832460
  795 H                    1.0000    -4.83847664    -3.95647941     1.45650827
  796 H                    1.0000    -7.24705208    -1.16312847     5.05100091
  797 H                    1.0000    -6.05087077     1.49480144     5.61669903
  798 H                    1.0000    -8.28953477     0.43740043     6.37966091
  799 H                    1.0000    -7.16047243    -0.45710642     7.70715915
  800 H                    1.0000    -6.67668358     1.65026623     8.73645647
  801 H                    1.0000    -7.80913419     2.52550644     7.52075928
  802 H                    1.0000    -9.68531623     2.63481581     7.79828369
  803 H                    1.0000    -5.36783898    -1.79570686     6.91931108
  804 H                    1.0000    -3.51057632    -0.85155609     8.99578900
  805 H                    1.0000    -4.53300075    -3.07373028     9.17812988
  806 H                    1.0000    -3.75792923    -3.62678713     7.58788068
  807 H                    1.0000    -2.02176079    -4.96991883     8.00269513
  808 H                    1.0000    -0.76310712    -4.68718137     9.36330467
  809 H                    1.0000    -3.12696498    -2.03117184     5.61133407
  810 H                    1.0000    -0.17654236    -1.98378871     5.59994129
  811 H                    1.0000    -2.28928492    -1.55659686     3.37864737
  812 H                    1.0000    -0.17705097    -2.09870387     1.88357701
  813 H                    1.0000    -0.34827985    -0.37626570     2.56855058
  814 H                    1.0000     0.83145994    -1.57995600     3.35961073
  815 H                    1.0000    -2.37735936    -3.76535388     4.33525156
  816 H                    1.0000    -1.47836738    -3.85120384     2.70744719
  817 H                    1.0000    -0.52307411    -3.92505810     4.30380920
  818 H                    1.0000    -2.69620186     0.54975765     4.87444939
  819 H                    1.0000    -0.71008364     2.60604705     4.13823049
  820 H                    1.0000    -3.58695041     2.72237247     5.36432849
  821 H                    1.0000    -2.63217177     4.23679775     4.88660797
  822 H                    1.0000    -2.27692287     3.17949006     2.50921133
  823 H                    1.0000    -3.38625108     1.78254514     3.00720524
  824 H                    1.0000    -5.22486065     3.43017562     3.53583046
  825 H                    1.0000    -4.09351186     4.83367944     3.04015213
  826 H                    1.0000    -3.91954695     3.88613203     0.71408348
  827 H                    1.0000    -5.00283175     2.46877568     1.17459833
  828 H                    1.0000    -6.49595006     4.10445667     0.24121725
  829 H                    1.0000    -6.67182859     4.32555475     2.04814045
  830 H                    1.0000    -2.09849865     1.57200533     7.34048485
  831 H                    1.0000    -0.77723413     3.77880585     8.80971510
  832 H                    1.0000    -2.08251340     1.08091873     9.49890680
  833 H                    1.0000    -0.91972528     1.82369751    10.74851716
  834 H                    1.0000    -2.39721481     2.79208471    10.16055796
  835 H                    1.0000     0.30685037     0.41427522     7.83262769
  836 H                    1.0000     2.80840030     0.59112344     9.38475890
  837 H                    1.0000     2.21918513    -0.82575996     6.66581898
  838 H                    1.0000     3.71126163    -1.10004772     7.79321475
  839 H                    1.0000     2.34339141    -2.01502741     9.54676468
  840 H                    1.0000     0.76662252    -1.49412818     8.69351156
  841 H                    1.0000     0.87270981    -3.20773834     7.12322409
  842 H                    1.0000     2.75388076    -3.25921787     7.16339852
  843 H                    1.0000     1.20681682    -4.08665512     9.67826015
  844 H                    1.0000     1.22693212    -5.23909252     8.20131320
  845 H                    1.0000     3.48921819    -5.59659314     8.34807402
  846 H                    1.0000     3.83725646    -3.94790285     9.05903736
  847 H                    1.0000     1.77478632     1.75453509     6.09867399
  848 H                    1.0000     4.57338931     2.49344795     5.26785984
  849 H                    1.0000     1.79098623     3.39656698     4.33770293
  850 H                    1.0000     4.05004569     1.79344285     2.82096131
  851 H                    1.0000     2.68156057     0.98961917     3.79481109
  852 H                    1.0000     3.59035585     4.13243691     2.25313732
  853 H                    1.0000     2.78443742     5.28506142     3.47265981
  854 H                    1.0000     4.50222332     4.64270664     3.79359722
  855 H                    1.0000     1.01814618     1.58489596     2.21878627
  856 H                    1.0000     1.85778950     3.18467749     1.77048714
  857 H                    1.0000     2.47821194     1.57761782     1.06420320
  858 H                    1.0000     1.74656632     4.13919335     6.99266752
  859 H                    1.0000     3.06669914     6.78864005     6.98205079
  860 H                    1.0000     0.71017915     6.53565442     7.73568511
  861 H                    1.0000     1.25355019     5.49845972     9.18453558
  862 H                    1.0000     2.52017511     7.40970605    10.16378458
  863 H                    1.0000     2.23574624     8.44566691     8.64721925
  864 H                    1.0000     0.98592589    10.11052464     9.59532305
  865 H                    1.0000    -0.69287125     9.77211232    10.35857011
  866 H                    1.0000     2.97361267     4.03919147     9.33235666
  867 H                    1.0000     4.82246357     5.17883643    11.37571869
  868 H                    1.0000     3.23351877     2.95125487    11.15789027
  869 H                    1.0000     4.80053156     2.16250596    10.63355131
  870 H                    1.0000     3.57107286     4.62213266    12.92103883
  871 H                    1.0000     5.59886915     3.46687926     8.20766481
  872 H                    1.0000     8.45742635     3.97105041     9.26897898
  873 H                    1.0000     9.31883769     2.32281029     7.87706752
  874 H                    1.0000     7.56944494     1.72931486     8.55215486
  875 H                    1.0000     6.86930140     1.19526255     6.62786986
  876 H                    1.0000     7.47543856     2.76486125     5.84676301
  877 H                    1.0000     8.64808722     0.77563235     4.84844858
  878 H                    1.0000     9.84443517     1.81566249     5.84967412
  879 H                    1.0000     9.35175335     0.19662023     7.83302094
  880 H                    1.0000     8.52998842    -0.91372565     6.60689100
  881 H                    1.0000    10.54436509    -1.23326280     5.37543156
  882 H                    1.0000    11.29896266     0.31373465     5.99361344
  883 H                    1.0000     6.45388412     5.42446949     6.81558121
  884 H                    1.0000     9.04652119     6.85651122     6.13298606
  885 H                    1.0000     6.49928130     6.30613093     4.34552948
  886 H                    1.0000     8.02198029     7.33923754     3.86057006
  887 H                    1.0000     8.24440571     4.36881882     4.66312217
  888 H                    1.0000     7.81071448     4.92243860     2.92194397
  889 H                    1.0000    10.08311218     3.59540133     4.24612375
  890 H                    1.0000     5.99125675     7.08978364     7.59604482
  891 H                    1.0000     5.18858503     9.00083929     8.66023945
  892 H                    1.0000     6.44783796    10.03089526     7.60712662
  893 H                    1.0000     4.62602398     8.18282164     5.46593746
  894 H                    1.0000     3.15779132    10.80274025     4.81583568
  895 H                    1.0000     3.03330544     7.87387695     3.57699188
  896 H                    1.0000     4.71778474    10.26530682     2.47598700
  897 H                    1.0000     5.39342937     9.06478631     3.73097623
  898 H                    1.0000     1.09379665     9.06227294     2.81308530
  899 H                    1.0000     2.04837746    10.63903076     2.55254424
  900 H                    1.0000     2.34796209     9.17483808     1.44222413
  901 H                    1.0000     4.17260375     7.30046485     1.84638675
  902 H                    1.0000     4.77247591     8.67297964     0.74109702
  903 H                    1.0000     5.97206176     7.77674350     1.84752745
  904 H                    1.0000    -0.47729646     9.87165025     7.34596690
  905 H                    1.0000    -1.40672327    11.95522808     5.13317392
  906 H                    1.0000    -1.74499865    12.04372682     6.91656080
  907 H                    1.0000     0.16365753    13.65713872     5.96565844
  908 H                    1.0000     0.65654051    12.68008295     7.40627653
  909 H                    1.0000     2.37956102    12.05637948     5.72861072
  910 H                    1.0000     1.25298058    12.12226310     4.33046394
  911 H                    1.0000    -2.29722472     6.96210096     4.50724946
  912 H                    1.0000    -4.57084931     7.17159567     6.62441244
  913 H                    1.0000    -3.82603448     5.67366187     5.92182904
  914 H                    1.0000    -3.04432180     6.39368559     8.42074198
  915 H                    1.0000    -1.68992483     6.01274966     7.29545880
  916 H                    1.0000    -1.17567513     8.37446345     8.01448589
  917 H                    1.0000    -2.89855091     8.88656354     8.04991540
  918 H                    1.0000    -3.99832580     9.89935022     5.60483097
  919 H                    1.0000    -6.12565485     9.48547361     3.46629445
  920 H                    1.0000    -7.04875954    10.92249448     4.93238082
  921 H                    1.0000    -5.36903321    11.41794655     5.62377416
  922 H                    1.0000    -4.06992452    12.67849070     3.88995237
  923 H                    1.0000    -2.78081594    10.38812818     3.31215266
  924 H                    1.0000    -3.43976832    11.82705442     0.68412665
  925 H                    1.0000    -0.69057181    11.16916341     2.13254863
  926 H                    1.0000    -0.84055900    12.16185400     0.57455243
  927 H                    1.0000    -2.39735744    13.78502498     1.77727484
  928 H                    1.0000    -2.17467868    12.77402207     3.34854054
  929 H                    1.0000     0.63307272    12.83055532     1.31195360
  930 H                    1.0000     1.56650635    14.14235183     2.27283366
  931 H                    1.0000    -2.80827432     8.63456020     1.81197149
  932 H                    1.0000    -1.19450270     7.89405069    -0.57883044
  933 H                    1.0000    -2.53507254     6.09183215     1.65731171
  934 H                    1.0000    -1.19210364     5.57676840     0.42882692
  935 H                    1.0000     0.40272795     7.19101701     1.46622832
  936 H                    1.0000    -0.90954629     7.72981978     2.68039755
  937 H                    1.0000     0.39914080     6.98420083     4.51685731
  938 H                    1.0000     0.55838809     5.14147140     4.82414553
  939 H                    1.0000    -1.71643388     7.04870128    -2.37666354
  940 H                    1.0000    -4.57743695     5.65043389    -2.63943138
  941 H                    1.0000    -4.83639708     7.60247149    -3.73439948
  942 H                    1.0000    -3.05287444     7.48606708    -4.45892630
  943 H                    1.0000    -3.67613237     5.76929032    -5.95922723
  944 H                    1.0000    -5.37356145     5.60712564    -5.18942006
  945 H                    1.0000    -5.97272780     7.88330695    -5.89635744
  946 H                    1.0000    -4.23409108     8.17039012    -6.53918371
  947 H                    1.0000    -6.33697084     6.24548427    -7.71914090
  948 H                    1.0000    -3.36483868     8.40166960    -8.01610163
  949 H                    1.0000    -3.15414707     7.93838179    -9.82063834
  950 H                    1.0000    -5.82045475     5.53229603    -9.80620460
[...]
          Stack Space remaining (MW):      208.15           208151028

   convergence    iter        energy       DeltaE   RMS-Dens  Diis-err    time
 ---------------- ----- ----------------- --------- --------- ---------  ------
 d=40,ls=0.0,diis     1 -29907.2907928382 -4.87D+05  5.43D-03  6.37D+03   305.5
 sigma= .10D-02 eFermi= -0.08603 T*S= -1.35E-03 nel(1)= 4592.00 nel(
 d=40,ls=0.0,diis     2 -29807.5786591228  9.97D+01  6.37D-03  1.03D+03   594.2
 Grid integrated density:    4592.002020269235
 Requested integration accuracy:   0.10E-05
 sigma= .10D-02 eFermi= -0.03113 T*S= -1.78E-03 nel(1)= 4592.00 nel(
 d=40,ls=0.0,diis     3 -29738.0808288825  6.95D+01  1.37D-02  2.92D+02   878.4
 Grid integrated density:    4592.002409056357
 Requested integration accuracy:   0.10E-05
 sigma= .10D-02 eFermi= -0.12218 T*S= -2.37E-06 nel(1)= 4592.00 nel(
 d=40,ls=0.0,diis     4 -29148.2043056634  5.90D+02  8.34D-03  9.41D+02  1169.5
 Grid integrated density:    4592.002194889124
 Requested integration accuracy:   0.10E-05
 sigma= .10D-02 eFermi= -0.13993 T*S= -5.09E-09 nel(1)= 4592.00 nel(
 d=40,ls=0.0,diis     5 -29670.1734834596 -5.22D+02  3.50D-03  1.39D+02  1471.5
 Grid integrated density:    4592.002089393114
 Requested integration accuracy:   0.10E-05
 sigma= .10D-02 eFermi= -0.14066 T*S= -2.41E-04 nel(1)= 4592.00 nel(
 d=40,ls=0.0,diis     6 -29742.1939846349 -7.20D+01  3.60D-03  2.77D+01  1758.1
 Grid integrated density:    4592.001940605254
 Requested integration accuracy:   0.10E-05
 sigma= .10D-02 eFermi= -0.17382 T*S= -1.13E-03 nel(1)= 4592.00 nel(
 d=40,ls=0.0,diis     7 -29731.5446762216  1.06D+01  4.60D-03  5.99D+01  2043.0
 Grid integrated density:    4592.001886061559
 Requested integration accuracy:   0.10E-05
 sigma= .10D-02 eFermi= -0.12541 T*S=  0.00E+00 nel(1)= 4592.00 nel(
 d=40,ls=0.0,diis     8 -29741.8607520534 -1.03D+01  2.60D-03  4.12D+01  2326.9
 sigma= .10D-02 eFermi= -0.15222 T*S= -9.84E-14 nel(1)= 4592.00 nel(
 d=40,ls=0.0,diis     9 -29758.5536310523 -1.67D+01  1.08D-03  6.39D+00  2608.1
 sigma= .10D-02 eFermi= -0.13593 T*S=  0.00E+00 nel(1)= 4592.00 nel(
 d=40,ls=0.0,diis    10 -29762.1163807466 -3.56D+00  4.49D-04  1.66D+00  2890.8
 
      Calculation failed to converge
      ------------------------------
 


         Total DFT energy =   -29762.116380746593
      One electron energy =  -954009.004756018054
           Coulomb energy =   471205.560489603551
    Exchange-Corr. energy =    -4013.887071930711
 Nuclear repulsion energy =   457055.214957598597

 Numeric. integr. density =     4592.001975023193

     Total iterative time =   2856.7s



 center of mass
 --------------
 x =  -0.02840550 y =  -0.01849385 z =   0.02206668

 moments of inertia (a.u.)
 ------------------
     3015779.871664003935          -0.000000001214           0.000000001222
          -0.000000001214     2119347.277681882493           0.000000000269
           0.000000001222           0.000000000269     3335050.695867752656
 -----------------------
 Performance information
 -----------------------

 Timer overhead =  4.00D-07 seconds/call

               Nr. of calls         CPU time (s)                 Wall time (s)                GFlops
             ---------------    -------------------     ------------------------------   -------------------
Name         Min   Avg   Max    Min     Avg     Max     Min     Avg     Max   Mx/calls   Min     Max     Sum
dft: 1-e     10    10    10   6.00E-2 7.58E-2 9.20E-2  7.59E-2 7.62E-2 7.65E-2 7.65E-3   0.0     0.0     0.0   
dft: gues     1     1     1    20.     20.     20.      20.     20.     20.     20.      0.0     0.0     0.0   
dft:  xc     10    10    10   2.74E+3 2.75E+3 2.76E+3  2.78E+3 2.78E+3 2.78E+3 2.78E+2   0.0     0.0     0.0   
dft:xmrge    10    10    10    35.     42.     43.      41.     42.     43.     4.3      0.0     0.0     0.0   
dft:xcopy    10    10    10   1.60E-2  1.1     2.5     2.09E-2  1.1     2.5    0.25      0.0     0.0     0.0   
dft:ssw      91   213   380    4.7     5.3     6.4      4.7     5.4     6.4    1.69E-2   0.0     0.0     0.0   
dft:xcrho     0    30   100    0.0     2.3     7.8      0.0     2.3     7.8    7.82E-2   0.0     0.0     0.0   
dft:tabcd     0    26    80    0.0     1.4     4.2      0.0     1.4     4.2    5.24E-2   0.0     0.0     0.0   
dft:ebf       0    38   100    0.0    0.57     1.5      0.0    0.59     1.6    1.57E-2   0.0     0.0     0.0   
dft:excf      0    26    80    0.0    7.77E-2 0.22      0.0    7.80E-2 0.21    2.64E-3   0.0     0.0     0.0   
dft:diag     11    11    11    53.     54.     54.      54.     54.     54.     4.9      0.0     0.0     0.0   
dft:vcoul    10    10    10   7.60E-2 0.16    0.24     0.12    0.17    0.22    2.25E-2   0.0     0.0     0.0   
dft:bld12    10    10    10    7.7     7.8     7.9      7.9     7.9     7.9    0.79      0.0     0.0     0.0   
dft:diis     10    10    10    21.     21.     22.      22.     22.     22.     2.2      0.0     0.0     0.0   
dft:fockb    10    10    10   2.74E+3 2.76E+3 2.76E+3  2.78E+3 2.78E+3 2.78E+3 2.78E+2   0.0     0.0     0.0   
dft:dgemm    71    71    71    40.     40.     40.      41.     41.     41.    0.57      0.0     0.0     0.0   
dft:scfen     1     1     1    3.3     4.4     4.4      4.4     4.4     4.4     4.4      0.0     0.0     0.0   
dft:scf       1     1     1   2.87E+3 2.89E+3 2.90E+3  2.92E+3 2.92E+3 2.92E+3 2.92E+3   0.0     0.0     0.0   
dft:total     1     1     1   2.88E+3 2.90E+3 2.91E+3  2.93E+3 2.93E+3 2.93E+3 2.93E+3   0.0     0.0     0.0   

 The average no. of pstat calls per process was 4.99D+02
 with a timing overhead of 2.00D-04s

  !! warning: dft energy failed

 Task  times  cpu:     2890.1s     wall:     2927.9s
 
 
                                NWChem Input Module
                                -------------------
 
 
 
                                 NWChem DFT Module
                                 -----------------
 
 
                                E and Grad of 1UBQ
 
 


 Summary of "ao basis" -> "631g" (spherical)
 ------------------------------------------------------------------------------
       Tag                 Description            Shells   Functions and Types
 ---------------- ------------------------------  ------  ---------------------
 N                           6-31g                   5        9   3s2p
 C                           6-31g                   5        9   3s2p
 O                           6-31g                   5        9   3s2p
 S                           6-31g                   7       13   4s3p
 H                           6-31g                   2        2   2s



int_init: setting std/high accuracies to  1.0D-10  1.0D-20
  int_init: cando_hnd set to always be   F
  Caching 1-el integrals 
 
            General Information
            -------------------
          SCF calculation type: DFT
          Wavefunction type:  closed shell.
          No. of atoms     :  1231
          No. of electrons :  4592
           Alpha electrons :  2296
            Beta electrons :  2296
          Charge           :     0
          Spin multiplicity:     1
          Use of symmetry is: off; symmetry adaption is: off
          Maximum number of iterations: 120
          This is a Direct SCF calculation.
          AO basis - number of functions:  6680
                     number of shells:  4270
          Convergence on energy requested: 1.00D-05
          Convergence on density requested: 1.00D-05
          Convergence on gradient requested: 5.00D-04
 
              XC Information
              --------------
                         PBE0 Method XC Functional
                     Hartree-Fock (Exact) Exchange  0.250          
          PerdewBurkeErnzerhof Exchange Functional  0.750          
            Perdew 1991 LDA Correlation Functional  1.000 local    
           PerdewBurkeErnz. Correlation Functional  1.000 non-local
 
             Grid Information
             ----------------
          Grid used for XC integration:  medium    
          Radial quadrature: Mura-Knowles        
          Angular quadrature: Lebedev. 
          Tag              B.-S. Rad. Rad. Pts. Rad. Cut. Ang. Pts.
          ---              ---------- --------- --------- ---------
          N                   0.65       49          16.0       434
          C                   0.70       49          16.0       434
          O                   0.60       49          15.0       434
          S                   1.00       88          15.0       590
          H                   0.35       45          16.0       434
          Grid pruning is: on 
          Number of quadrature shells: 57842
          Spatial weights used:  Erf1
 
          Convergence Information
          -----------------------
          Convergence aids based upon iterative change in 
          total energy or number of iterations. 
          Levelshifting, if invoked, occurs when the 
          HOMO/LUMO gap drops below (HL_TOL): 1.00D-02
          DIIS, if invoked, will attempt to extrapolate 
          using up to (NFOCK):  5 stored Fock matrices.

                    Damping(40%)  Levelshifting(0.5)       DIIS
                  --------------- ------------------- ---------------
          dE  on:    0.10+100         ASAP                start   
          dE off:    0.10D-02        10 iters            10 iters 

          Smearing applied: 0.10D-02 (hartree)
 
      Screening Tolerance Information
      -------------------------------
          Density screening/tol_rho: 1.00D-10
          AO Gaussian exp screening on grid/accAOfunc:  12
          CD Gaussian exp screening on grid/accCDfunc:  20
          XC Gaussian exp screening on grid/accXCfunc:  20
          Schwarz screening/accCoul: 1.00D-11

 
    Orbital projection guess
    ------------------------

 Filename           = /lustre/atlas/scratch/hjjvd/csc242/ub_start_631g.mos
 Old title          = "E and Grad of 1UBQ"
 Old basis size     =  6680
 Old no. of sets    =     1
 Old no. of MOs     =  6680
 Old basis name     = 631g
 Basis name on file = 631g


int_init: setting std/high accuracies to  1.0D-10  1.0D-20
  int_init: cando_hnd set to always be   F

int_init: setting std/high accuracies to  1.0D-10  1.0D-20
  int_init: cando_hnd set to always be   F
   Time after variat. SCF:   2984.9
 sigma= .10D-02 eFermi=  0.00000 T*S= -1.61E-03 nel(1)= 4592.00 nel(
   Time prior to 1st pass:   2985.1

 Grid_pts file          = /lustre/atlas/scratch/hjjvd/csc242/nwc_gbeg_dat.gridpts.0000
 Record size in doubles =  12289        No. of grid_pts per rec  =   3070
 Max. records in memory =      5        Max. recs in file   =    263861

 sigma= .10D-02 eFermi= -0.11949 T*S= -2.09E-09 nel(1)= 4592.00 nel(

           Memory utilization after 1st SCF pass: 
           Heap Space remaining (MW):        0.03               33293
          Stack Space remaining (MW):      208.14           208144332

   convergence    iter        energy       DeltaE   RMS-Dens  Diis-err    time
 ---------------- ----- ----------------- --------- --------- ---------  ------
 d=40,ls=0.0,diis     1 -29763.6435272864 -4.87D+05  6.06D-04  1.48D+00  3361.9
 Grid integrated density:    4592.001998782981
 Requested integration accuracy:   0.10E-05
 sigma= .10D-02 eFermi= -0.12415 T*S=  0.00E+00 nel(1)= 4592.00 nel(
 d=40,ls=0.0,diis     2 -29763.5980617621  4.55D-02  1.77D-04  1.12D+00  3741.5
 sigma= .10D-02 eFermi= -0.10009 T*S= -3.02E-15 nel(1)= 4592.00 nel(
 d=40,ls=0.0,diis     3 -29763.7625418020 -1.64D-01  6.10D-05  1.48D-01  4127.4
 sigma= .10D-02 eFermi= -0.10071 T*S=  0.00E+00 nel(1)= 4592.00 nel(
 d=40,ls=0.0,diis     4 -29763.8125085289 -5.00D-02  3.05D-05  2.84D-02  4512.5
 sigma= .10D-02 eFermi= -0.10135 T*S=  0.00E+00 nel(1)= 4592.00 nel(
 d=40,ls=0.0,diis     5 -29763.8309871726 -1.85D-02  1.38D-05  5.67D-03  4899.4
 sigma= .10D-02 eFermi= -0.10145 T*S=  0.00E+00 nel(1)= 4592.00 nel(
 d=40,ls=0.0,diis     6 -29763.8381243053 -7.14D-03  5.94D-06  9.69D-04  5275.5
 sigma= .10D-02 eFermi= -0.10136 T*S=  0.00E+00 nel(1)= 4592.00 nel(
 d=40,ls=0.0,diis     7 -29763.8409101746 -2.79D-03  2.54D-06  1.55D-04  5648.6
 sigma= .10D-02 eFermi= -0.10142 T*S=  0.00E+00 nel(1)= 4592.00 nel(
 d=40,ls=0.0,diis     8 -29763.8420115340 -1.10D-03  1.04D-06  2.58D-05  6019.8
 sigma= .10D-02 eFermi= -0.10142 T*S=  0.00E+00 nel(1)= 4592.00 nel(
 d= 0,ls=0.0,diis     9 -29763.8424503356 -4.39D-04  4.92D-07  4.61D-06  6388.7
 sigma= .10D-02 eFermi= -0.10142 T*S=  0.00E+00 nel(1)= 4592.00 nel(
 d= 0,ls=0.0,diis    10 -29763.8427422568 -2.92D-04  1.06D-07  2.53D-07  6744.5
 sigma= .10D-02 eFermi= -0.10142 T*S=  0.00E+00 nel(1)= 4592.00 nel(
 d= 0,ls=0.0         11 -29763.8427422696 -1.29D-08  1.72D-07            7101.0


         Total DFT energy =   -29763.842742269626
      One electron energy =  -953938.560507906717
           Coulomb energy =   471132.269982223283
    Exchange-Corr. energy =    -4012.767174184811
 Nuclear repulsion energy =   457055.214957598597

 Numeric. integr. density =     4592.002008489157

     Total iterative time =   4116.6s



 center of mass
 --------------
 x =  -0.02840550 y =  -0.01849385 z =   0.02206668

 moments of inertia (a.u.)
 ------------------
     3015779.871664003935          -0.000000001214           0.000000001222
          -0.000000001214     2119347.277681882493           0.000000000269
           0.000000001222           0.000000000269     3335050.695867752656
 -----------------------
 Performance information
 -----------------------

 Timer overhead =  4.00D-07 seconds/call

               Nr. of calls         CPU time (s)                 Wall time (s)                GFlops
             ---------------    -------------------     ------------------------------   -------------------
Name         Min   Avg   Max    Min     Avg     Max     Min     Avg     Max   Mx/calls   Min     Max     Sum
dft: 1-e     11    11    11   2.00E-2 4.01E-2 5.60E-2  3.98E-2 4.02E-2 4.15E-2 3.77E-3   0.0     0.0     0.0   
dft: gues     1     1     1    80.     81.     82.      82.     82.     82.     82.      0.0     0.0     0.0   
dft:  xc     11    11    11   3.99E+3 4.01E+3 4.01E+3  4.03E+3 4.03E+3 4.03E+3 3.67E+2   0.0     0.0     0.0   
dft:xmrge    11    11    11    32.     39.     40.      38.     40.     41.     3.7      0.0     0.0     0.0   
dft:xcopy    11    11    11   1.60E-2  1.2     2.8     1.35E-2  1.2     2.8    0.25      0.0     0.0     0.0   
dft:ssw     107   213   355    3.8     5.4     7.1      3.8     5.4     7.1    2.00E-2   0.0     0.0     0.0   
dft:xcrho     0    36    88    0.0     5.3     14.      0.0     5.3     14.    0.16      0.0     0.0     0.0   
dft:tabcd     0    31    77    0.0     3.5     9.5      0.0     3.5     9.5    0.12      0.0     0.0     0.0   
dft:ebf       0    42    99    0.0    0.63     1.5      0.0    0.64     1.5    1.51E-2   0.0     0.0     0.0   
dft:excf      0    31    77    0.0    8.89E-2 0.26      0.0    8.88E-2 0.25    3.26E-3   0.0     0.0     0.0   
dft:diag     12    12    12    57.     57.     58.      58.     58.     58.     4.8      0.0     0.0     0.0   
dft:vcoul    11    11    11    0.0    5.60E-2 0.13     7.27E-3 5.64E-2 0.12    1.05E-2   0.0     0.0     0.0   
dft:bld12    10    10    10    9.9     10.     10.      10.     10.     10.     1.0      0.0     0.0     0.0   
dft:diis     10    10    10    23.     23.     24.      24.     24.     24.     2.4      0.0     0.0     0.0   
dft:fockb    11    11    11   3.99E+3 4.01E+3 4.02E+3  4.04E+3 4.04E+3 4.04E+3 3.67E+2   0.0     0.0     0.0   
dft:dgemm    73    73    73    43.     44.     44.      44.     44.     44.    0.61      0.0     0.0     0.0   
dft:scfen     1     1     1    3.3     4.4     4.4      4.4     4.4     4.4     4.4      0.0     0.0     0.0   
dft:scf       1     1     1   4.19E+3 4.22E+3 4.22E+3  4.24E+3 4.24E+3 4.24E+3 4.24E+3   0.0     0.0     0.0   
dft:total     1     1     1   4.20E+3 4.23E+3 4.23E+3  4.25E+3 4.25E+3 4.25E+3 4.25E+3   0.0     0.0     0.0   

 The average no. of pstat calls per process was 5.28D+02
 with a timing overhead of 2.11D-04s


 Task  times  cpu:     4210.3s     wall:     4254.1s
 
 
                                NWChem Input Module
                                -------------------
 
 
 Summary of allocated global arrays
-----------------------------------
  No active global arrays



                         GA Statistics for process    0
                         ------------------------------

       create   destroy   get      put      acc     scatter   gather  read&inc
calls:  348      348     3.15e+05 2.24e+04 4.14e+05    0        0     2.87e+04 
number of processes/call 1.96e+00 2.61e+01 1.83e+00 0.00e+00 0.00e+00
bytes total:             1.31e+10 3.94e+08 7.40e+09 0.00e+00 0.00e+00 2.30e+05
bytes remote:            1.30e+10 3.70e+08 7.35e+09 0.00e+00 0.00e+00 0.00e+00
Max memory consumed for GA by this process: 716266496 bytes
 
MA_summarize_allocated_blocks: starting scan ...
heap block 'gridpts', handle 90, address 0x13d4c110:
	type of elements:		double precision
	number of elements:		41957967
	address of client space:	0x13d4c180
	index for client space:		9245999
	total number of bytes:		335663856
MA_summarize_allocated_blocks: scan completed: 1 heap block, 0 stack blocks
MA usage statistics:

	allocation statistics:
					      heap	     stack
					      ----	     -----
	current number of blocks	         1	         0
	maximum number of blocks	        26	        57
	current total bytes		 335663856	         0
	maximum total bytes		 346944232	 370081960
	maximum total K-bytes		    346945	    370082
	maximum total M-bytes		       347	       371
 
 
                                     CITATION
                                     --------
                Please cite the following reference when publishing
                           results obtained with NWChem:
 
                 M. Valiev, E.J. Bylaska, N. Govind, K. Kowalski,
              T.P. Straatsma, H.J.J. van Dam, D. Wang, J. Nieplocha,
                        E. Apra, T.L. Windus, W.A. de Jong
                 "NWChem: a comprehensive and scalable open-source
                  solution for large scale molecular simulations"
                      Comput. Phys. Commun. 181, 1477 (2010)
                           doi:10.1016/j.cpc.2010.04.018
 
                                      AUTHORS
                                      -------
          E. Apra, E. J. Bylaska, W. A. de Jong, N. Govind, K. Kowalski,
       T. P. Straatsma, M. Valiev, H. J. J. van Dam, D. Wang, T. L. Windus,
        J. Hammond, J. Autschbach, K. Bhaskaran-Nair, J. Brabec, K. Lopata,
       S. A. Fischer, S. Krishnamoorthy, W. Ma, M. Klemm, O. Villa, Y. Chen,
    V. Anisimov, F. Aquino, S. Hirata, M. T. Hackler, T. Risthaus, M. Malagoli,
       A. Marenich, A. Otero-de-la-Roza, J. Mullin, P. Nichols, R. Peverati,
     J. Pittner, Y. Zhao, P.-D. Fan, A. Fonari, M. Williamson, R. J. Harrison,
       J. R. Rehr, M. Dupuis, D. Silverstein, D. M. A. Smith, J. Nieplocha,
        V. Tipparaju, M. Krishnan, B. E. Van Kuiken, A. Vazquez-Mayagoitia,
        L. Jensen, M. Swart, Q. Wu, T. Van Voorhis, A. A. Auer, M. Nooijen,
      L. D. Crosby, E. Brown, G. Cisneros, G. I. Fann, H. Fruchtl, J. Garza,
        K. Hirao, R. A. Kendall, J. A. Nichols, K. Tsemekhman, K. Wolinski,
     J. Anchell, D. E. Bernholdt, P. Borowski, T. Clark, D. Clerc, H. Dachsel,
   M. J. O. Deegan, K. Dyall, D. Elwood, E. Glendening, M. Gutowski, A. C. Hess,
         J. Jaffe, B. G. Johnson, J. Ju, R. Kobayashi, R. Kutteh, Z. Lin,
   R. Littlefield, X. Long, B. Meng, T. Nakajima, S. Niu, L. Pollack, M. Rosing,
   K. Glaesemann, G. Sandrone, M. Stave, H. Taylor, G. Thomas, J. H. van Lenthe,
                               A. T. Wong, Z. Zhang.

 Total times  cpu:     7105.1s     wall:     7187.5s
Application 15543906 resources: utime ~29227248s, stime ~211538s, Rss ~1480416, inblocks ~30925498, outblocks ~102914690
