/autofs/nccs-svm1_home1/hjjvd
CODAR
NWChemEx-Project
NWX_TA
Nwchem-6.6.revision27746-src.2015-10-20.tar.gz
bin
build
conda-bld
ga-5.6.3.tar.gz
lib
man
pybuilddir.txt
summitdev
titan
tksvn
mkdir: cannot create directory `/lustre/atlas/scratch/hjjvd/chm136/dgrtl.gto_631gp.74752': File exists
PE 0: MPICH Warning: DMAPP optimizations are not supported if libdmapp is not linked into your application. Please see the mpi man page. Disabling all requested DMAPP optimizations.
 argument  1 = nwc_gbe_631gp_ccsd_t.nw
 


============================== echo of input deck ==============================
echo
restart nwc_gbe_dat
title "E and Grad of 1UBQ"
#memory stack 800 mb heap 100 mb global 2000 mb noverify
geometry noautoz
   load format pdb "dgrtl.pdb"
end
basis 631gp spherical
  * library 6-31g*
end

set "ao basis" 631gp
charge +1
scf
  thresh 1.0e-6
  tol2e 1.0e-10
  singlet
  rhf
  maxiter 300
  vectors input nwc_gbe_dat.movecs output nwc_gbe_dat.movecs
end
set scf:pstat t
set tce:pstat t

tce
  ccsd(t)
  diis 0
  2eorb
  2emet 15
  tilesize 15
  attilesize 45
  thresh 1.0e-3
  maxiter 100
  #cuda 1
end

set tce:nts T

### tce restart ########
#
# when generating 2-electron integrals for the first time:
# uncomment "set tce:writeint T"
# in following runs please
# comment  "set tce:writeint T"
# and
# uncomment "set tce:readint T"
# it will save time :-)
#
set tce:maxioprocs 16
set tce:tceiop   2048
set tce:writeint F
set tce:writet   F
#set tce:writex   F
set tce:readint  T
set tce:readt    T
#set tce:readx    T
#######################

task tce energy
================================================================================


                                         
                                         
 
 
              Northwest Computational Chemistry Package (NWChem) 6.8
              ------------------------------------------------------
 
 
                    Environmental Molecular Sciences Laboratory
                       Pacific Northwest National Laboratory
                                Richland, WA 99352
 
                              Copyright (c) 1994-2018
                       Pacific Northwest National Laboratory
                            Battelle Memorial Institute
 
             NWChem is an open-source computational chemistry package
                        distributed under the terms of the
                      Educational Community License (ECL) 2.0
             A copy of the license is included with this distribution
                              in the LICENSE.TXT file
 
                                  ACKNOWLEDGMENT
                                  --------------

            This software and its documentation were developed at the
            EMSL at Pacific Northwest National Laboratory, a multiprogram
            national laboratory, operated for the U.S. Department of Energy
            by Battelle under Contract Number DE-AC05-76RL01830. Support
            for this work was provided by the Department of Energy Office
            of Biological and Environmental Research, Office of Basic
            Energy Sciences, and the Office of Advanced Scientific Computing.


           Job information
           ---------------

    hostname        = nid03780
    program         = /lustre/atlas/scratch/hjjvd/chm136/dgrtl.gto_631gp.74752/nwchem
    date            = Wed Jan  2 10:37:06 2019

    compiled        = Wed_Dec_12_11:21:40_2018
    source          = /ccs/home/hjjvd/titan/nwchem
    nwchem branch   = Development
    nwchem revision = nwchem_on_git-351-g7d4a73345
    ga revision     = ga-5.6.3
    use scalapack   = T
    input           = nwc_gbe_631gp_ccsd_t.nw
    prefix          = nwc_gbe_dat.
    data base       = /lustre/atlas/scratch/hjjvd/chm136/dgrtl.gto_631gp.74752/nwc_gbe_dat.db
    status          = restart
    nproc           =    70080
    time left       =     -1s



           Memory information
           ------------------

    heap     =    6553594 doubles =     50.0 Mbytes
    stack    =  174937429 doubles =   1334.7 Mbytes
    global   =   67283626 doubles =    513.3 Mbytes (distinct from heap & stack)
    total    =  248774649 doubles =   1898.0 Mbytes
    verify   = yes
    hardfail = no 


           Directory information
           ---------------------
 
  0 permanent = /lustre/atlas/scratch/hjjvd/chm136/dgrtl.gto_631gp.74752
  0 scratch   = /lustre/atlas/scratch/hjjvd/chm136/dgrtl.gto_631gp.74752
 
 
           Previous task information
           -------------------------

    Theory    = tce                             
    Operation = energy                        
    Status    = ok                            
    Qmmm      = F
    Ignore    = F

 
           Geometries in the database
           --------------------------
 
       Name                              Natoms  Last Modified
       --------------------------------  ------  ------------------------
    1  geometry                              79  Sun Dec  2 15:22:39 2018  
 
  The geometry named "geometry" is the default for restart
 
 
 
           Basis sets in the database
           --------------------------
 
       Name                              Natoms  Last Modified
        --------------------------------  ------  ------------------------
    1  631gp                                  0  Sun Dec  2 15:22:39 2018  
 
  The basis set named "631gp" is the default AO basis for restart
 
 
 
 
                                NWChem Input Module
                                -------------------
 
 
                                E and Grad of 1UBQ
                                ------------------

 Scaling coordinates for geometry "geometry" by  1.889725989
 (inverse scale =  0.529177249)

 C1  symmetry detected
 
 
                             Geometry "geometry" -> ""
                             -------------------------
 
 Output coordinates in angstroms (scale by  1.889725989 to convert to a.u.)
 
  No.       Tag          Charge          X              Y              Z
 ---- ---------------- ---------- -------------- -------------- --------------
    1 N                    7.0000     2.32906152     4.50497561    -1.74104900
    2 C                    6.0000     2.62746889     4.39747324    -0.31708893
    3 C                    6.0000     1.58316452     3.88229451     0.65826088
    4 O                    8.0000     1.96536223     3.17203504     1.63153031
    5 C                    6.0000     3.17093495     5.77310393     0.17051833
    6 C                    6.0000     4.61984434     5.98216592    -0.22109840
    7 O                    8.0000     5.17470143     7.06570304     0.06565919
    8 O                    8.0000     5.24172042     5.10923915    -0.84227389
    9 N                    7.0000     0.34751118     4.30287770     0.51273907
   10 C                    6.0000    -0.76651384     3.94357402     1.40931708
   11 C                    6.0000    -1.42962453     2.63454319     1.13913479
   12 O                    8.0000    -2.25461301     2.15397265     1.94921872
   13 N                    7.0000    -1.11857252     1.96615596     0.03444200
   14 C                    6.0000    -1.67514052     0.63072531    -0.26339357
   15 C                    6.0000    -0.80180935    -0.40750593     0.42477687
   16 O                    8.0000     0.35946097    -0.12200259     0.78880720
   17 C                    6.0000    -1.69557624     0.34016866    -1.76580603
   18 C                    6.0000    -2.45516489     1.39076317    -2.60100976
   19 C                    6.0000    -3.96055504     1.17262312    -2.27426608
   20 N                    7.0000    -4.36917204     2.37842516    -1.58917952
   21 C                    6.0000    -4.96902685     2.65972446    -0.47410020
   22 N                    7.0000    -5.40925757     1.78228945     0.40777548
   23 N                    7.0000    -5.10570620     3.97134461    -0.14396636
   24 N                    7.0000    -1.29538921    -1.61649224     0.52247552
   25 C                    6.0000    -0.56570687    -2.76611350     1.10378494
   26 C                    6.0000    -0.11142581    -3.65076119    -0.08128729
   27 O                    8.0000    -0.58915638    -3.48311333    -1.19864386
   28 C                    6.0000    -1.47918793    -3.59968258     2.05247294
   29 O                    8.0000    -2.57683571    -4.02927961     1.13594267
   30 C                    6.0000    -2.07456032    -2.87604938     3.24367474
   31 N                    7.0000     0.81388643    -4.54470352     0.20027685
   32 C                    6.0000     1.31248684    -5.50593605    -0.79835355
   33 C                    6.0000     0.14051370    -6.37085985    -1.25458680
   34 O                    8.0000     0.03870186    -6.62648525    -2.42370100
   35 C                    6.0000     2.45042237    -6.32411125    -0.15201459
   36 C                    6.0000     3.69261129    -5.59040550     0.35231822
   37 C                    6.0000     4.70766680    -6.58422804     0.94040330
   38 C                    6.0000     4.42413898    -4.91980436    -0.80833304
   39 H                    1.0000     2.58480150     5.43884488    -2.22572028
   40 H                    1.0000     3.37933543     3.54155260    -0.28833884
   41 H                    1.0000     2.54086211     6.60242560    -0.29281178
   42 H                    1.0000     3.10728899     5.79370085     1.30869185
   43 H                    1.0000     4.63044578     7.82303659     0.57710194
   44 H                    1.0000     0.13215710     4.95838079    -0.32175738
   45 H                    1.0000    -0.36130414     3.91589997     2.47409933
   46 H                    1.0000    -1.56787139     4.73520305     1.23444982
   47 H                    1.0000    -0.43275172     2.41605737    -0.67278395
   48 H                    1.0000    -2.75019383     0.59403206     0.11267823
   49 H                    1.0000    -0.61844170     0.29870313    -2.13699168
   50 H                    1.0000    -2.24657428    -0.64792209    -1.90153682
   51 H                    1.0000    -2.13236094     2.44339667    -2.30635858
   52 H                    1.0000    -2.24324701     1.27875011    -3.71576259
   53 H                    1.0000    -4.56233961     1.03107077    -3.23168567
   54 H                    1.0000    -4.13226686     0.23968514    -1.64266829
   55 H                    1.0000    -4.10975280     3.27006952    -2.14607627
   56 H                    1.0000    -5.28087180     0.72266712     0.22726890
   57 H                    1.0000    -5.89890886     2.12206391     1.31143854
   58 H                    1.0000    -4.71938051     4.73840703    -0.80284397
   59 H                    1.0000    -2.30014202    -1.78622743     0.15528244
   60 H                    1.0000     0.31698638    -2.39451640     1.72256942
   61 H                    1.0000    -0.86489037    -4.42176299     2.54748436
   62 H                    1.0000    -3.54691947    -3.89542208     1.63656496
   63 H                    1.0000    -3.19425144    -3.08211919     3.29344446
   64 H                    1.0000    -1.57788383    -3.24634598     4.20012593
   65 H                    1.0000    -1.89944599    -1.75508254     3.13355521
   66 H                    1.0000     1.22300061    -4.57417275     1.20254884
   67 H                    1.0000     1.73959766    -4.99148459    -1.72178413
   68 H                    1.0000     2.00208582    -6.87456009     0.73962515
   69 H                    1.0000     2.84186606    -6.97212753    -1.00439170
   70 H                    1.0000     3.33405558    -4.83613543     1.12860648
   71 H                    1.0000     4.58444703    -7.59838715     0.43407813
   72 H                    1.0000     5.76562815    -6.19704927     0.76348413
   73 H                    1.0000     4.52554617    -6.69481701     2.06102641
   74 H                    1.0000     4.08863545    -5.38948867    -1.79186445
   75 H                    1.0000     4.18170513    -3.80563401    -0.81677499
   76 H                    1.0000     5.54843388    -5.06355819    -0.68258005
   77 H                    1.0000     1.32610230     4.36202290    -1.85742047
   78 H                    1.0000    -5.55568790     4.22360296     0.69405940
   79 H                    1.0000    -0.54852316    -6.72763283    -0.57488815
 
      Atomic Mass 
      ----------- 
 
      N                 14.003070
      C                 12.000000
      O                 15.994910
      H                  1.007825
 

 Effective nuclear repulsion energy (a.u.)    4475.2626654164

            Nuclear Dipole moment (a.u.) 
            ----------------------------
        X                 Y               Z
 ---------------- ---------------- ----------------
     0.0000000000    -0.0000000000     0.0000000000
 
 
            XYZ format geometry
            -------------------
    79
 geometry
 N                     2.32906152     4.50497561    -1.74104900
 C                     2.62746889     4.39747324    -0.31708893
 C                     1.58316452     3.88229451     0.65826088
 O                     1.96536223     3.17203504     1.63153031
 C                     3.17093495     5.77310393     0.17051833
 C                     4.61984434     5.98216592    -0.22109840
 O                     5.17470143     7.06570304     0.06565919
 O                     5.24172042     5.10923915    -0.84227389
 N                     0.34751118     4.30287770     0.51273907
 C                    -0.76651384     3.94357402     1.40931708
 C                    -1.42962453     2.63454319     1.13913479
 O                    -2.25461301     2.15397265     1.94921872
 N                    -1.11857252     1.96615596     0.03444200
 C                    -1.67514052     0.63072531    -0.26339357
 C                    -0.80180935    -0.40750593     0.42477687
 O                     0.35946097    -0.12200259     0.78880720
 C                    -1.69557624     0.34016866    -1.76580603
 C                    -2.45516489     1.39076317    -2.60100976
 C                    -3.96055504     1.17262312    -2.27426608
 N                    -4.36917204     2.37842516    -1.58917952
 C                    -4.96902685     2.65972446    -0.47410020
 N                    -5.40925757     1.78228945     0.40777548
 N                    -5.10570620     3.97134461    -0.14396636
 N                    -1.29538921    -1.61649224     0.52247552
 C                    -0.56570687    -2.76611350     1.10378494
 C                    -0.11142581    -3.65076119    -0.08128729
 O                    -0.58915638    -3.48311333    -1.19864386
 C                    -1.47918793    -3.59968258     2.05247294
 O                    -2.57683571    -4.02927961     1.13594267
 C                    -2.07456032    -2.87604938     3.24367474
 N                     0.81388643    -4.54470352     0.20027685
 C                     1.31248684    -5.50593605    -0.79835355
 C                     0.14051370    -6.37085985    -1.25458680
 O                     0.03870186    -6.62648525    -2.42370100
 C                     2.45042237    -6.32411125    -0.15201459
 C                     3.69261129    -5.59040550     0.35231822
 C                     4.70766680    -6.58422804     0.94040330
 C                     4.42413898    -4.91980436    -0.80833304
 H                     2.58480150     5.43884488    -2.22572028
 H                     3.37933543     3.54155260    -0.28833884
 H                     2.54086211     6.60242560    -0.29281178
 H                     3.10728899     5.79370085     1.30869185
 H                     4.63044578     7.82303659     0.57710194
 H                     0.13215710     4.95838079    -0.32175738
 H                    -0.36130414     3.91589997     2.47409933
 H                    -1.56787139     4.73520305     1.23444982
 H                    -0.43275172     2.41605737    -0.67278395
 H                    -2.75019383     0.59403206     0.11267823
 H                    -0.61844170     0.29870313    -2.13699168
 H                    -2.24657428    -0.64792209    -1.90153682
 H                    -2.13236094     2.44339667    -2.30635858
 H                    -2.24324701     1.27875011    -3.71576259
 H                    -4.56233961     1.03107077    -3.23168567
 H                    -4.13226686     0.23968514    -1.64266829
 H                    -4.10975280     3.27006952    -2.14607627
 H                    -5.28087180     0.72266712     0.22726890
 H                    -5.89890886     2.12206391     1.31143854
 H                    -4.71938051     4.73840703    -0.80284397
 H                    -2.30014202    -1.78622743     0.15528244
 H                     0.31698638    -2.39451640     1.72256942
 H                    -0.86489037    -4.42176299     2.54748436
 H                    -3.54691947    -3.89542208     1.63656496
 H                    -3.19425144    -3.08211919     3.29344446
 H                    -1.57788383    -3.24634598     4.20012593
 H                    -1.89944599    -1.75508254     3.13355521
 H                     1.22300061    -4.57417275     1.20254884
 H                     1.73959766    -4.99148459    -1.72178413
 H                     2.00208582    -6.87456009     0.73962515
 H                     2.84186606    -6.97212753    -1.00439170
 H                     3.33405558    -4.83613543     1.12860648
 H                     4.58444703    -7.59838715     0.43407813
 H                     5.76562815    -6.19704927     0.76348413
 H                     4.52554617    -6.69481701     2.06102641
 H                     4.08863545    -5.38948867    -1.79186445
 H                     4.18170513    -3.80563401    -0.81677499
 H                     5.54843388    -5.06355819    -0.68258005
 H                     1.32610230     4.36202290    -1.85742047
 H                    -5.55568790     4.22360296     0.69405940
 H                    -0.54852316    -6.72763283    -0.57488815
 
 ==============================================================================
                                internuclear distances
 ------------------------------------------------------------------------------
       center one      |      center two      | atomic units |  angstroms
 ------------------------------------------------------------------------------
    2 C                |   1 N                |     2.75684  |     1.45886
    3 C                |   2 C                |     2.87045  |     1.51898
    4 O                |   3 C                |     2.38869  |     1.26404
    5 C                |   2 C                |     2.94305  |     1.55739
    6 C                |   5 C                |     2.86367  |     1.51539
    7 O                |   6 C                |     2.36340  |     1.25066
    8 O                |   6 C                |     2.34097  |     1.23879
    9 N                |   3 C                |     2.48188  |     1.31336
   10 C                |   9 N                |     2.78631  |     1.47445
   11 C                |  10 C                |     2.81961  |     1.49207
   12 O                |  11 C                |     2.36615  |     1.25211
   13 N                |  11 C                |     2.50974  |     1.32810
   14 C                |  13 N                |     2.79133  |     1.47711
   15 C                |  14 C                |     2.87475  |     1.52125
   16 O                |  15 C                |     2.36222  |     1.25003
   17 C                |  14 C                |     2.89201  |     1.53039
   18 C                |  17 C                |     2.91428  |     1.54217
   19 C                |  18 C                |     2.94006  |     1.55581
   20 N                |  19 C                |     2.73212  |     1.44578
   21 C                |  20 N                |     2.45108  |     1.29706
   22 N                |  21 C                |     2.49372  |     1.31962
   23 N                |  21 C                |     2.56893  |     1.35942
   24 N                |  15 C                |     2.47461  |     1.30951
   25 C                |  24 N                |     2.79781  |     1.48054
   26 C                |  25 C                |     2.92350  |     1.54705
   27 O                |  26 C                |     2.31815  |     1.22671
   28 C                |  25 C                |     2.94536  |     1.55862
   29 O                |  28 C                |     2.82159  |     1.49312
   30 C                |  28 C                |     2.86409  |     1.51561
   31 N                |  26 C                |     2.48886  |     1.31705
   32 C                |  31 N                |     2.78363  |     1.47304
   33 C                |  32 C                |     2.88439  |     1.52636
   34 O                |  33 C                |     2.26967  |     1.20106
   35 C                |  32 C                |     2.91659  |     1.54339
   36 C                |  35 C                |     2.88807  |     1.52830
   37 C                |  36 C                |     2.90543  |     1.53749
   38 C                |  36 C                |     2.88575  |     1.52707
   39 H                |   1 N                |     2.04616  |     1.08278
   40 H                |   2 C                |     2.15357  |     1.13962
   41 H                |   5 C                |     2.15416  |     1.13993
   42 H                |   5 C                |     2.15455  |     1.14014
   43 H                |   7 O                |     2.01000  |     1.06365
   44 H                |   9 N                |     2.04619  |     1.08280
   45 H                |  10 C                |     2.15356  |     1.13961
   46 H                |  10 C                |     2.15415  |     1.13992
   47 H                |  13 N                |     2.04661  |     1.08302
   48 H                |  14 C                |     2.15339  |     1.13952
   49 H                |  17 C                |     2.15438  |     1.14005
   50 H                |  17 C                |     2.15325  |     1.13945
   51 H                |  18 C                |     2.15384  |     1.13976
   52 H                |  18 C                |     2.15473  |     1.14023
   53 H                |  19 C                |     2.15365  |     1.13966
   54 H                |  19 C                |     2.15360  |     1.13964
   55 H                |  20 N                |     2.04620  |     1.08280
   56 H                |  22 N                |     2.04568  |     1.08253
   57 H                |  22 N                |     2.04563  |     1.08250
   58 H                |  23 N                |     2.04558  |     1.08247
   59 H                |  24 N                |     2.04682  |     1.08313
   60 H                |  25 C                |     2.15472  |     1.14023
   61 H                |  28 C                |     2.15314  |     1.13939
   63 H                |  30 C                |     2.15350  |     1.13958
   64 H                |  30 C                |     2.15346  |     1.13956
   65 H                |  30 C                |     2.15409  |     1.13989
   66 H                |  31 N                |     2.04649  |     1.08296
   67 H                |  32 C                |     2.15446  |     1.14009
   68 H                |  35 C                |     2.15381  |     1.13975
   69 H                |  35 C                |     2.15437  |     1.14004
   70 H                |  36 C                |     2.15471  |     1.14022
   71 H                |  37 C                |     2.15467  |     1.14020
   72 H                |  37 C                |     2.15503  |     1.14039
   73 H                |  37 C                |     2.15561  |     1.14070
   74 H                |  38 C                |     2.15503  |     1.14039
   75 H                |  38 C                |     2.15480  |     1.14027
   76 H                |  38 C                |     2.15505  |     1.14040
   77 H                |   1 N                |     1.92706  |     1.01976
   78 H                |  23 N                |     1.85963  |     0.98408
   79 H                |  33 C                |     1.94930  |     1.03153
 ------------------------------------------------------------------------------
                         number of included internuclear distances:         77
 ==============================================================================



 ==============================================================================
                                 internuclear angles
 ------------------------------------------------------------------------------
        center 1       |       center 2       |       center 3       |  degrees
 ------------------------------------------------------------------------------
    2 C                |   1 N                |  39 H                |   116.88
    2 C                |   1 N                |  77 H                |   107.59
   39 H                |   1 N                |  77 H                |   107.58
    1 N                |   2 C                |   3 C                |   120.74
    1 N                |   2 C                |   5 C                |   108.17
    1 N                |   2 C                |  40 H                |   102.41
    3 C                |   2 C                |   5 C                |   109.78
    3 C                |   2 C                |  40 H                |   100.52
    5 C                |   2 C                |  40 H                |   115.17
    2 C                |   3 C                |   4 O                |   118.50
    2 C                |   3 C                |   9 N                |   117.84
    4 O                |   3 C                |   9 N                |   123.35
    2 C                |   5 C                |   6 C                |   112.00
    2 C                |   5 C                |  41 H                |   108.81
    2 C                |   5 C                |  42 H                |   108.00
    6 C                |   5 C                |  41 H                |   108.85
    6 C                |   5 C                |  42 H                |   107.99
   41 H                |   5 C                |  42 H                |   111.21
    5 C                |   6 C                |   7 O                |   118.98
    5 C                |   6 C                |   8 O                |   120.82
    7 O                |   6 C                |   8 O                |   120.18
    6 C                |   7 O                |  43 H                |   120.01
    3 C                |   9 N                |  10 C                |   124.43
    3 C                |   9 N                |  44 H                |   117.80
   10 C                |   9 N                |  44 H                |   117.77
    9 N                |  10 C                |  11 C                |   116.07
    9 N                |  10 C                |  45 H                |   107.78
    9 N                |  10 C                |  46 H                |   105.58
   11 C                |  10 C                |  45 H                |   107.81
   11 C                |  10 C                |  46 H                |   105.61
   45 H                |  10 C                |  46 H                |   114.21
   10 C                |  11 C                |  12 O                |   120.82
   10 C                |  11 C                |  13 N                |   119.21
   12 O                |  11 C                |  13 N                |   119.95
   11 C                |  13 N                |  14 C                |   122.31
   11 C                |  13 N                |  47 H                |   118.84
   14 C                |  13 N                |  47 H                |   118.85
   13 N                |  14 C                |  15 C                |   108.03
   13 N                |  14 C                |  17 C                |   112.00
   13 N                |  14 C                |  48 H                |   108.54
   15 C                |  14 C                |  17 C                |   108.80
   15 C                |  14 C                |  48 H                |   111.74
   17 C                |  14 C                |  48 H                |   107.78
   14 C                |  15 C                |  16 O                |   120.61
   14 C                |  15 C                |  24 N                |   116.58
   16 O                |  15 C                |  24 N                |   122.64
   14 C                |  17 C                |  18 C                |   114.14
   14 C                |  17 C                |  49 H                |   108.30
   14 C                |  17 C                |  50 H                |   106.74
   18 C                |  17 C                |  49 H                |   108.29
   18 C                |  17 C                |  50 H                |   106.74
   49 H                |  17 C                |  50 H                |   112.74
   17 C                |  18 C                |  19 C                |   105.51
   17 C                |  18 C                |  51 H                |   110.47
   17 C                |  18 C                |  52 H                |   111.78
   19 C                |  18 C                |  51 H                |   110.44
   19 C                |  18 C                |  52 H                |   111.80
   51 H                |  18 C                |  52 H                |   106.91
   18 C                |  19 C                |  20 N                |   104.84
   18 C                |  19 C                |  53 H                |   110.60
   18 C                |  19 C                |  54 H                |   112.15
   20 N                |  19 C                |  53 H                |   110.64
   20 N                |  19 C                |  54 H                |   112.18
   53 H                |  19 C                |  54 H                |   106.52
   19 C                |  20 N                |  21 C                |   135.97
   19 C                |  20 N                |  55 H                |   112.05
   21 C                |  20 N                |  55 H                |   111.99
   20 N                |  21 C                |  22 N                |   125.77
   20 N                |  21 C                |  23 N                |   117.68
   22 N                |  21 C                |  23 N                |   116.47
   21 C                |  22 N                |  56 H                |   119.99
   21 C                |  22 N                |  57 H                |   120.00
   56 H                |  22 N                |  57 H                |   120.01
   21 C                |  23 N                |  58 H                |   120.00
   21 C                |  23 N                |  78 H                |   120.01
   58 H                |  23 N                |  78 H                |   119.99
   15 C                |  24 N                |  25 C                |   124.08
   15 C                |  24 N                |  59 H                |   117.97
   25 C                |  24 N                |  59 H                |   117.94
   24 N                |  25 C                |  26 C                |   106.74
   24 N                |  25 C                |  28 C                |   111.43
   24 N                |  25 C                |  60 H                |   109.97
   26 C                |  25 C                |  28 C                |   109.42
   26 C                |  25 C                |  60 H                |   112.01
   28 C                |  25 C                |  60 H                |   107.32
   25 C                |  26 C                |  27 O                |   120.35
   25 C                |  26 C                |  31 N                |   115.51
   27 O                |  26 C                |  31 N                |   124.13
   25 C                |  28 C                |  29 O                |   102.19
   25 C                |  28 C                |  30 C                |   116.95
   25 C                |  28 C                |  61 H                |   109.53
   29 O                |  28 C                |  30 C                |   109.33
   29 O                |  28 C                |  61 H                |   117.09
   30 C                |  28 C                |  61 H                |   102.40
   28 C                |  30 C                |  63 H                |   109.51
   28 C                |  30 C                |  64 H                |   109.47
   28 C                |  30 C                |  65 H                |   109.47
   63 H                |  30 C                |  64 H                |   109.44
   63 H                |  30 C                |  65 H                |   109.45
   64 H                |  30 C                |  65 H                |   109.49
   26 C                |  31 N                |  32 C                |   122.40
   26 C                |  31 N                |  66 H                |   118.80
   32 C                |  31 N                |  66 H                |   118.80
   31 N                |  32 C                |  33 C                |   108.21
   31 N                |  32 C                |  35 C                |   108.15
   31 N                |  32 C                |  67 H                |   112.42
   33 C                |  32 C                |  35 C                |   113.01
   33 C                |  32 C                |  67 H                |   107.53
   35 C                |  32 C                |  67 H                |   107.59
   32 C                |  33 C                |  34 O                |   118.47
   32 C                |  33 C                |  79 H                |   120.79
   34 O                |  33 C                |  79 H                |   120.74
   32 C                |  35 C                |  36 C                |   118.88
   32 C                |  35 C                |  68 H                |   107.07
   32 C                |  35 C                |  69 H                |   103.97
   36 C                |  35 C                |  68 H                |   107.06
   36 C                |  35 C                |  69 H                |   103.92
   68 H                |  35 C                |  69 H                |   116.45
   35 C                |  36 C                |  37 C                |   110.64
   35 C                |  36 C                |  38 C                |   110.45
   35 C                |  36 C                |  70 H                |   106.66
   37 C                |  36 C                |  38 C                |   104.97
   37 C                |  36 C                |  70 H                |   112.01
   38 C                |  36 C                |  70 H                |   112.19
   36 C                |  37 C                |  71 H                |   109.50
   36 C                |  37 C                |  72 H                |   109.49
   36 C                |  37 C                |  73 H                |   109.45
   71 H                |  37 C                |  72 H                |   109.47
   71 H                |  37 C                |  73 H                |   109.44
   72 H                |  37 C                |  73 H                |   109.48
   36 C                |  38 C                |  74 H                |   109.49
   36 C                |  38 C                |  75 H                |   109.44
   36 C                |  38 C                |  76 H                |   109.46
   74 H                |  38 C                |  75 H                |   109.48
   74 H                |  38 C                |  76 H                |   109.46
   75 H                |  38 C                |  76 H                |   109.49
 ------------------------------------------------------------------------------
                            number of included internuclear angles:        136
 ==============================================================================



  library name resolved from: environment
  library file name is: <
 /sw/xk6/nwchem/6.6/sles11.3_pgi15.7.0/src/basis/libraries/>
  


 Summary of "631gp" -> "" (spherical)
 ------------------------------------------------------------------------------
       Tag                 Description            Shells   Functions and Types
 ---------------- ------------------------------  ------  ---------------------
 *                           6-31g*                   on all atoms 


                      Basis "ao basis" -> "631gp" (spherical)
                      -----
  N (Nitrogen)
  ------------
            Exponent  Coefficients 
       -------------- ---------------------------------------------------------
  1 S  4.17351100E+03  0.001835
  1 S  6.27457900E+02  0.013995
  1 S  1.42902100E+02  0.068587
  1 S  4.02343300E+01  0.232241
  1 S  1.28202100E+01  0.469070
  1 S  4.39043700E+00  0.360455
 
  2 S  1.16263580E+01 -0.114961
  2 S  2.71628000E+00 -0.169118
  2 S  7.72218000E-01  1.145852
 
  3 P  1.16263580E+01  0.067580
  3 P  2.71628000E+00  0.323907
  3 P  7.72218000E-01  0.740895
 
  4 S  2.12031300E-01  1.000000
 
  5 P  2.12031300E-01  1.000000
 
  6 D  8.00000000E-01  1.000000
 
  C (Carbon)
  ----------
            Exponent  Coefficients 
       -------------- ---------------------------------------------------------
  1 S  3.04752490E+03  0.001835
  1 S  4.57369510E+02  0.014037
  1 S  1.03948690E+02  0.068843
  1 S  2.92101550E+01  0.232184
  1 S  9.28666300E+00  0.467941
  1 S  3.16392700E+00  0.362312
 
  2 S  7.86827240E+00 -0.119332
  2 S  1.88128850E+00 -0.160854
  2 S  5.44249300E-01  1.143456
 
  3 P  7.86827240E+00  0.068999
  3 P  1.88128850E+00  0.316424
  3 P  5.44249300E-01  0.744308
 
  4 S  1.68714400E-01  1.000000
 
  5 P  1.68714400E-01  1.000000
 
  6 D  8.00000000E-01  1.000000
 
  O (Oxygen)
  ----------
            Exponent  Coefficients 
       -------------- ---------------------------------------------------------
  1 S  5.48467170E+03  0.001831
  1 S  8.25234950E+02  0.013950
  1 S  1.88046960E+02  0.068445
  1 S  5.29645000E+01  0.232714
  1 S  1.68975700E+01  0.470193
  1 S  5.79963530E+00  0.358521
 
  2 S  1.55396160E+01 -0.110778
  2 S  3.59993360E+00 -0.148026
  2 S  1.01376180E+00  1.130767
 
  3 P  1.55396160E+01  0.070874
  3 P  3.59993360E+00  0.339753
  3 P  1.01376180E+00  0.727159
 
  4 S  2.70005800E-01  1.000000
 
  5 P  2.70005800E-01  1.000000
 
  6 D  8.00000000E-01  1.000000
 
  H (Hydrogen)
  ------------
            Exponent  Coefficients 
       -------------- ---------------------------------------------------------
  1 S  1.87311370E+01  0.033495
  1 S  2.82539370E+00  0.234727
  1 S  6.40121700E-01  0.813757
 
  2 S  1.61277800E-01  1.000000
 


 Summary of "ao basis" -> "631gp" (spherical)
 ------------------------------------------------------------------------------
       Tag                 Description            Shells   Functions and Types
 ---------------- ------------------------------  ------  ---------------------
 N                           6-31g*                  6       14   3s2p1d
 C                           6-31g*                  6       14   3s2p1d
 O                           6-31g*                  6       14   3s2p1d
 H                           6-31g*                  2        2   2s


                                 NWChem SCF Module
                                 -----------------
 
 
                                E and Grad of 1UBQ
 
 

  ao basis        = "631gp"
  functions       =   614
  atoms           =    79
  closed shells   =   146
  open shells     =     0
  charge          =   1.00
  wavefunction    = RHF 
  input vectors   = /lustre/atlas/scratch/hjjvd/chm136/dgrtl.gto_631gp.74752/nwc_gbe_dat.movecs
  output vectors  = /lustre/atlas/scratch/hjjvd/chm136/dgrtl.gto_631gp.74752/nwc_gbe_dat.movecs
  use symmetry    = F
  symmetry adapt  = F


 Summary of "ao basis" -> "631gp" (spherical)
 ------------------------------------------------------------------------------
       Tag                 Description            Shells   Functions and Types
 ---------------- ------------------------------  ------  ---------------------
 N                           6-31g*                  6       14   3s2p1d
 C                           6-31g*                  6       14   3s2p1d
 O                           6-31g*                  6       14   3s2p1d
 H                           6-31g*                  2        2   2s



 Forming initial guess at      77.8s


 Loading old vectors from job with title :

E and Grad of 1UBQ


 Starting SCF solution at      86.5s



 ----------------------------------------------
         Quadratically convergent ROHF

 Convergence threshold     :          1.000E-06
 Maximum no. of iterations :          300
 Final Fock-matrix accuracy:          1.000E-10
 ----------------------------------------------


              iter       energy          gnorm     gmax       time
             ----- ------------------- --------- --------- --------
                 1    -1891.0598712349  5.14D-08  6.60D-09     58.0


       Final RHF  results 
       ------------------ 

         Total SCF energy =  -1891.059871234938
      One-electron energy = -11471.665368898535
      Two-electron energy =   5105.342832247193
 Nuclear repulsion energy =   4475.262665416404

        Time for solution =     29.3s


             Final eigenvalues
             -----------------

              1      
    1  -20.6991
    2  -20.6610
    3  -20.6156
    4  -20.6085
    5  -20.5998
    6  -20.5907
    7  -20.5895
    8  -20.5865
    9  -15.7917
   10  -15.7889
   11  -15.7764
   12  -15.7116
   13  -15.7026
   14  -15.6817
   15  -15.6685
   16  -15.6384
   17  -11.5834
   18  -11.4547
   19  -11.4482
   20  -11.4444
   21  -11.4373
   22  -11.4315
   23  -11.4188
   24  -11.4004
   25  -11.3968
   26  -11.3916
   27  -11.3806
   28  -11.3734
   29  -11.3710
   30  -11.3641
   31  -11.3504
   32  -11.3430
   33  -11.3425
   34  -11.3242
   35  -11.3044
   36  -11.2948
   37  -11.2806
   38  -11.2762
   39   -1.5509
   40   -1.5329
   41   -1.4702
   42   -1.4527
   43   -1.4450
   44   -1.4430
   45   -1.4373
   46   -1.4064
   47   -1.3993
   48   -1.3935
   49   -1.3596
   50   -1.3393
   51   -1.3227
   52   -1.3095
   53   -1.3065
   54   -1.2691
   55   -1.2166
   56   -1.1616
   57   -1.1518
   58   -1.1274
   59   -1.1119
   60   -1.0958
   61   -1.0825
   62   -1.0590
   63   -1.0295
   64   -1.0003
   65   -0.9850
   66   -0.9635
   67   -0.9560
   68   -0.9531
   69   -0.9302
   70   -0.9201
   71   -0.9147
   72   -0.9061
   73   -0.8951
   74   -0.8835
   75   -0.8735
   76   -0.8582
   77   -0.8525
   78   -0.8461
   79   -0.8301
   80   -0.8219
   81   -0.8171
   82   -0.8146
   83   -0.8047
   84   -0.7921
   85   -0.7885
   86   -0.7770
   87   -0.7741
   88   -0.7622
   89   -0.7496
   90   -0.7428
   91   -0.7360
   92   -0.7322
   93   -0.7251
   94   -0.7225
   95   -0.7147
   96   -0.7108
   97   -0.7085
   98   -0.7034
   99   -0.7015
  100   -0.7001
  101   -0.6931
  102   -0.6844
  103   -0.6795
  104   -0.6744
  105   -0.6717
  106   -0.6628
  107   -0.6578
  108   -0.6497
  109   -0.6491
  110   -0.6477
  111   -0.6412
  112   -0.6365
  113   -0.6310
  114   -0.6245
  115   -0.6208
  116   -0.6182
  117   -0.6084
  118   -0.6065
  119   -0.6035
  120   -0.6016
  121   -0.5982
  122   -0.5886
  123   -0.5853
  124   -0.5831
  125   -0.5780
  126   -0.5725
  127   -0.5702
  128   -0.5687
  129   -0.5590
  130   -0.5370
  131   -0.5364
  132   -0.5283
  133   -0.5271
  134   -0.5156
  135   -0.5104
  136   -0.4992
  137   -0.4984
  138   -0.4963
  139   -0.4933
  140   -0.4918
  141   -0.4843
  142   -0.4826
  143   -0.4812
  144   -0.4655
  145   -0.4643
  146   -0.4477
  147   -0.0025
  148    0.0249
  149    0.0330
  150    0.0622
  151    0.0653
  152    0.0749
  153    0.0852
  154    0.0971
  155    0.0976
  156    0.0991
 
                       ROHF Final Molecular Orbital Analysis
                       -------------------------------------
 
 Vector   41  Occ=2.000000D+00  E=-1.470220D+00
              MO Center= -1.6D+00,  2.1D+00,  1.3D+00, r^2= 2.4D+00
   Bfn.  Coefficient  Atom+Function         Bfn.  Coefficient  Atom+Function  
  ----- ------------  ---------------      ----- ------------  ---------------
   160      0.343139  12 O  s               156      0.328582  12 O  s         
   142      0.234366  11 C  s               174      0.169724  13 N  s         
   170      0.160607  13 N  s               155     -0.153072  12 O  s         
 
 Vector   42  Occ=2.000000D+00  E=-1.452684D+00
              MO Center= -3.4D-01, -3.1D+00, -3.7D-01, r^2= 6.1D+00
   Bfn.  Coefficient  Atom+Function         Bfn.  Coefficient  Atom+Function  
  ----- ------------  ---------------      ----- ------------  ---------------
   370      0.292780  27 O  s               366      0.281486  27 O  s         
   352      0.197081  26 C  s               216      0.152850  16 O  s         
 
 Vector   43  Occ=2.000000D+00  E=-1.445001D+00
              MO Center=  1.2D+00,  2.5D+00,  7.9D-01, r^2= 1.1D+01
   Bfn.  Coefficient  Atom+Function         Bfn.  Coefficient  Atom+Function  
  ----- ------------  ---------------      ----- ------------  ---------------
    48      0.319016   4 O  s                44      0.303537   4 O  s         
    30      0.229411   3 C  s               118      0.189985   9 N  s         
   114      0.181776   9 N  s         
 
 Vector   44  Occ=2.000000D+00  E=-1.443032D+00
              MO Center=  4.5D-02, -3.9D+00, -1.0D+00, r^2= 1.7D+01
   Bfn.  Coefficient  Atom+Function         Bfn.  Coefficient  Atom+Function  
  ----- ------------  ---------------      ----- ------------  ---------------
   464      0.343650  34 O  s               468      0.326872  34 O  s         
   450      0.177611  33 C  s               216     -0.163474  16 O  s         
   463     -0.157537  34 O  s               212     -0.155987  16 O  s         
 
 Vector   45  Occ=2.000000D+00  E=-1.437340D+00
              MO Center= -2.4D-01, -2.4D+00, -2.4D-01, r^2= 8.6D+00
   Bfn.  Coefficient  Atom+Function         Bfn.  Coefficient  Atom+Function  
  ----- ------------  ---------------      ----- ------------  ---------------
   216      0.262746  16 O  s               212      0.248704  16 O  s         
   370     -0.231263  27 O  s               366     -0.221361  27 O  s         
   464      0.178975  34 O  s               468      0.172934  34 O  s         
   198      0.170284  15 C  s         
 
 Vector   46  Occ=2.000000D+00  E=-1.406409D+00
              MO Center= -2.4D+00, -3.8D+00,  1.3D+00, r^2= 1.3D+00
   Bfn.  Coefficient  Atom+Function         Bfn.  Coefficient  Atom+Function  
  ----- ------------  ---------------      ----- ------------  ---------------
   398      0.489002  29 O  s               394      0.432284  29 O  s         
   393     -0.199425  29 O  s         
 
 Vector   47  Occ=2.000000D+00  E=-1.399261D+00
              MO Center= -4.7D+00,  2.4D+00, -8.6D-01, r^2= 2.4D+00
   Bfn.  Coefficient  Atom+Function         Bfn.  Coefficient  Atom+Function  
  ----- ------------  ---------------      ----- ------------  ---------------
   272      0.360617  20 N  s               268      0.297161  20 N  s         
   300     -0.253011  22 N  s               296     -0.208322  22 N  s         
   314     -0.201676  23 N  s               285     -0.184579  21 C  pz        
   310     -0.165154  23 N  s         
 
 Vector   48  Occ=2.000000D+00  E=-1.393483D+00
              MO Center=  5.0D+00,  5.6D+00, -5.6D-01, r^2= 1.1D+00
   Bfn.  Coefficient  Atom+Function         Bfn.  Coefficient  Atom+Function  
  ----- ------------  ---------------      ----- ------------  ---------------
   104      0.416143   8 O  s               100      0.404826   8 O  s         
    90     -0.224535   7 O  s                74     -0.189994   6 C  py        
    86     -0.189686   7 O  s                99     -0.186989   8 O  s         
 
 Vector   49  Occ=2.000000D+00  E=-1.359590D+00
              MO Center= -5.2D+00,  2.9D+00, -6.6D-04, r^2= 2.0D+00
   Bfn.  Coefficient  Atom+Function         Bfn.  Coefficient  Atom+Function  
  ----- ------------  ---------------      ----- ------------  ---------------
   314     -0.385154  23 N  s               300      0.366008  22 N  s         
   310     -0.311049  23 N  s               296      0.279051  22 N  s         
   284     -0.212456  21 C  py              309      0.152460  23 N  s         
 
 Vector   50  Occ=2.000000D+00  E=-1.339328D+00
              MO Center= -8.7D-02,  3.1D+00,  7.6D-01, r^2= 4.2D+00
   Bfn.  Coefficient  Atom+Function         Bfn.  Coefficient  Atom+Function  
  ----- ------------  ---------------      ----- ------------  ---------------
   118      0.285165   9 N  s               174      0.238283  13 N  s         
   114      0.234323   9 N  s                48     -0.230944   4 O  s         
    44     -0.218329   4 O  s               170      0.197130  13 N  s         
   160     -0.185890  12 O  s               156     -0.173452  12 O  s         
 
 Vector   51  Occ=2.000000D+00  E=-1.322733D+00
              MO Center= -4.5D-01,  2.6D+00,  4.5D-01, r^2= 4.5D+00
   Bfn.  Coefficient  Atom+Function         Bfn.  Coefficient  Atom+Function  
  ----- ------------  ---------------      ----- ------------  ---------------
   174      0.320668  13 N  s               170      0.263897  13 N  s         
   118     -0.258899   9 N  s               114     -0.207309   9 N  s         
    48      0.176807   4 O  s                44      0.167072   4 O  s         
 
 Vector   52  Occ=2.000000D+00  E=-1.309479D+00
              MO Center= -7.7D-01, -1.6D+00,  5.3D-01, r^2= 3.1D+00
   Bfn.  Coefficient  Atom+Function         Bfn.  Coefficient  Atom+Function  
  ----- ------------  ---------------      ----- ------------  ---------------
   328      0.389782  24 N  s               324      0.319640  24 N  s         
   216     -0.242647  16 O  s               212     -0.226894  16 O  s         
   323     -0.158549  24 N  s               426     -0.153492  31 N  s         
   199     -0.150865  15 C  px        
 
 Vector   53  Occ=2.000000D+00  E=-1.306460D+00
              MO Center=  4.0D-01, -4.1D+00, -7.3D-02, r^2= 2.6D+00
   Bfn.  Coefficient  Atom+Function         Bfn.  Coefficient  Atom+Function  
  ----- ------------  ---------------      ----- ------------  ---------------
   426      0.396555  31 N  s               422      0.321867  31 N  s         
   370     -0.229841  27 O  s               366     -0.216455  27 O  s         
   421     -0.159908  31 N  s         
 
 Vector   54  Occ=2.000000D+00  E=-1.269078D+00
              MO Center=  2.2D+00,  4.6D+00, -1.2D+00, r^2= 1.9D+00
   Bfn.  Coefficient  Atom+Function         Bfn.  Coefficient  Atom+Function  
  ----- ------------  ---------------      ----- ------------  ---------------
     6      0.388675   1 N  s                 2      0.340995   1 N  s         
    16      0.201685   2 C  s                 1     -0.167648   1 N  s         
 
 Vector   55  Occ=2.000000D+00  E=-1.216599D+00
              MO Center= -2.7D+00,  1.3D+00, -1.6D+00, r^2= 4.3D+00
   Bfn.  Coefficient  Atom+Function         Bfn.  Coefficient  Atom+Function  
  ----- ------------  ---------------      ----- ------------  ---------------
   240      0.220538  18 C  s               226      0.184555  17 C  s         
   244      0.181042  18 C  s               254      0.181634  19 C  s         
   230      0.168827  17 C  s         
 
 Vector   56  Occ=2.000000D+00  E=-1.161598D+00
              MO Center=  1.9D+00, -4.6D+00,  5.9D-02, r^2= 1.3D+01
   Bfn.  Coefficient  Atom+Function         Bfn.  Coefficient  Atom+Function  
  ----- ------------  ---------------      ----- ------------  ---------------
   492      0.202406  36 C  s               478      0.184053  35 C  s         
   482      0.161089  35 C  s               496      0.158052  36 C  s         
 
 Vector   57  Occ=2.000000D+00  E=-1.151763D+00
              MO Center= -9.9D-01, -4.2D-01, -2.6D-01, r^2= 2.1D+01
   Bfn.  Coefficient  Atom+Function         Bfn.  Coefficient  Atom+Function  
  ----- ------------  ---------------      ----- ------------  ---------------
   184      0.164607  14 C  s               188      0.156604  14 C  s         
 
 Vector   58  Occ=2.000000D+00  E=-1.127358D+00
              MO Center= -9.9D-01, -1.8D+00,  1.2D+00, r^2= 1.5D+01
   Bfn.  Coefficient  Atom+Function         Bfn.  Coefficient  Atom+Function  
  ----- ------------  ---------------      ----- ------------  ---------------
   380      0.190805  28 C  s               408      0.163649  30 C  s         
   398     -0.153935  29 O  s               338      0.151668  25 C  s         
   384      0.151950  28 C  s         
 
 Vector   59  Occ=2.000000D+00  E=-1.111948D+00
              MO Center=  1.3D+00,  4.1D+00, -1.4D-01, r^2= 1.2D+01
   Bfn.  Coefficient  Atom+Function         Bfn.  Coefficient  Atom+Function  
  ----- ------------  ---------------      ----- ------------  ---------------
     6      0.221325   1 N  s                62     -0.220776   5 C  s         
    58     -0.218304   5 C  s                 2      0.163776   1 N  s         
 
 Vector   60  Occ=2.000000D+00  E=-1.095831D+00
              MO Center=  4.8D-01,  4.1D+00,  2.3D-01, r^2= 1.2D+01
   Bfn.  Coefficient  Atom+Function         Bfn.  Coefficient  Atom+Function  
  ----- ------------  ---------------      ----- ------------  ---------------
    62      0.216177   5 C  s               128      0.212411  10 C  s         
   132      0.208374  10 C  s                58      0.203002   5 C  s         
 
 Vector   61  Occ=2.000000D+00  E=-1.082539D+00
              MO Center=  9.7D-01, -4.7D+00,  5.0D-01, r^2= 1.0D+01
   Bfn.  Coefficient  Atom+Function         Bfn.  Coefficient  Atom+Function  
  ----- ------------  ---------------      ----- ------------  ---------------
   436      0.203169  32 C  s               440      0.185820  32 C  s         
   412      0.165673  30 C  s               408      0.160332  30 C  s         
 
 Vector   62  Occ=2.000000D+00  E=-1.058963D+00
              MO Center= -1.6D+00, -3.5D-01, -1.8D-01, r^2= 1.8D+01
   Bfn.  Coefficient  Atom+Function         Bfn.  Coefficient  Atom+Function  
  ----- ------------  ---------------      ----- ------------  ---------------
   244      0.169767  18 C  s         
 
 Vector   63  Occ=2.000000D+00  E=-1.029458D+00
              MO Center= -1.2D+00, -1.4D+00,  5.3D-01, r^2= 1.8D+01
   Bfn.  Coefficient  Atom+Function         Bfn.  Coefficient  Atom+Function  
  ----- ------------  ---------------      ----- ------------  ---------------
   412     -0.184878  30 C  s               338      0.176895  25 C  s         
   342      0.176857  25 C  s               408     -0.160346  30 C  s         
 
 Vector   64  Occ=2.000000D+00  E=-1.000321D+00
              MO Center= -4.4D+00,  2.0D+00, -6.7D-01, r^2= 6.2D+00
   Bfn.  Coefficient  Atom+Function         Bfn.  Coefficient  Atom+Function  
  ----- ------------  ---------------      ----- ------------  ---------------
   282      0.189814  21 C  s               300     -0.179535  22 N  s         
   298      0.177620  22 N  py              258      0.172725  19 C  s         
   299     -0.171404  22 N  pz              270     -0.158743  20 N  py        
   272     -0.158855  20 N  s               312     -0.151987  23 N  py        
 
 Vector   65  Occ=2.000000D+00  E=-9.850408D-01
              MO Center=  2.0D+00,  4.4D+00, -5.4D-02, r^2= 8.3D+00
   Bfn.  Coefficient  Atom+Function         Bfn.  Coefficient  Atom+Function  
  ----- ------------  ---------------      ----- ------------  ---------------
    20      0.251445   2 C  s                16      0.210962   2 C  s         
 
 Vector   66  Occ=2.000000D+00  E=-9.635169D-01
              MO Center=  4.4D+00, -5.6D+00, -7.4D-02, r^2= 2.9D+00
   Bfn.  Coefficient  Atom+Function         Bfn.  Coefficient  Atom+Function  
  ----- ------------  ---------------      ----- ------------  ---------------
   524      0.316929  38 C  s               520      0.279346  38 C  s         
   510     -0.256450  37 C  s               506     -0.232209  37 C  s         
 
 Vector   67  Occ=2.000000D+00  E=-9.560066D-01
              MO Center= -2.6D+00,  5.0D-01, -6.4D-01, r^2= 2.5D+01
   Bfn.  Coefficient  Atom+Function         Bfn.  Coefficient  Atom+Function  
  ----- ------------  ---------------      ----- ------------  ---------------
   312      0.199358  23 N  py              284     -0.167215  21 C  py        
 
 Vector   68  Occ=2.000000D+00  E=-9.530590D-01
              MO Center=  8.4D-01, -4.2D+00, -2.6D-01, r^2= 2.5D+01
   Bfn.  Coefficient  Atom+Function         Bfn.  Coefficient  Atom+Function  
  ----- ------------  ---------------      ----- ------------  ---------------
   482      0.216122  35 C  s               478      0.184622  35 C  s         
   510     -0.170455  37 C  s               450     -0.162884  33 C  s         
 
 Vector   69  Occ=2.000000D+00  E=-9.302026D-01
              MO Center= -3.1D+00,  1.7D+00, -8.9D-01, r^2= 1.0D+01
   Bfn.  Coefficient  Atom+Function         Bfn.  Coefficient  Atom+Function  
  ----- ------------  ---------------      ----- ------------  ---------------
   230      0.224175  17 C  s               244     -0.175865  18 C  s         
   298      0.176690  22 N  py              271     -0.163750  20 N  pz        
   226      0.161079  17 C  s         
 
 Vector   70  Occ=2.000000D+00  E=-9.201045D-01
              MO Center= -2.6D+00,  3.0D+00, -4.0D-01, r^2= 1.8D+01
   Bfn.  Coefficient  Atom+Function         Bfn.  Coefficient  Atom+Function  
  ----- ------------  ---------------      ----- ------------  ---------------
   313     -0.216043  23 N  pz              284      0.197479  21 C  py        
   258      0.164022  19 C  s         
 
 Vector   71  Occ=2.000000D+00  E=-9.147002D-01
              MO Center=  1.1D+00,  4.1D+00,  3.2D-02, r^2= 3.0D+01
   Bfn.  Coefficient  Atom+Function         Bfn.  Coefficient  Atom+Function  
  ----- ------------  ---------------      ----- ------------  ---------------
    88      0.293788   7 O  py               92      0.164955   7 O  py        
 
 Vector   72  Occ=2.000000D+00  E=-9.061122D-01
              MO Center=  5.3D-01,  1.8D+00,  7.4D-01, r^2= 2.8D+01
   Bfn.  Coefficient  Atom+Function         Bfn.  Coefficient  Atom+Function  
  ----- ------------  ---------------      ----- ------------  ---------------
    88      0.225276   7 O  py              384      0.164939  28 C  s         
 
 Vector   73  Occ=2.000000D+00  E=-8.950521D-01
              MO Center= -3.2D-01, -3.2D+00,  5.6D-01, r^2= 1.5D+01
   Bfn.  Coefficient  Atom+Function         Bfn.  Coefficient  Atom+Function  
  ----- ------------  ---------------      ----- ------------  ---------------
   384     -0.179264  28 C  s               352      0.165025  26 C  s         
 
 Vector   74  Occ=2.000000D+00  E=-8.834743D-01
              MO Center=  2.3D-01,  1.6D+00,  3.2D-01, r^2= 1.9D+01
   Bfn.  Coefficient  Atom+Function         Bfn.  Coefficient  Atom+Function  
  ----- ------------  ---------------      ----- ------------  ---------------
   115      0.217433   9 N  px               31     -0.152412   3 C  px        
 
 Vector   75  Occ=2.000000D+00  E=-8.735361D-01
              MO Center= -8.8D-01,  1.3D+00,  2.0D-01, r^2= 1.2D+01
   Bfn.  Coefficient  Atom+Function         Bfn.  Coefficient  Atom+Function  
  ----- ------------  ---------------      ----- ------------  ---------------
   173      0.236584  13 N  pz              171     -0.164136  13 N  px        
   549     -0.156118  47 H  s         
 
 Vector   76  Occ=2.000000D+00  E=-8.582352D-01
              MO Center=  8.4D-02, -4.1D+00, -2.2D-01, r^2= 1.2D+01
   Bfn.  Coefficient  Atom+Function         Bfn.  Coefficient  Atom+Function  
  ----- ------------  ---------------      ----- ------------  ---------------
   325      0.168237  24 N  px              440      0.154881  32 C  s         
   450     -0.152919  33 C  s               613     -0.152724  79 H  s         
   454     -0.150454  33 C  s         
 
 Vector   77  Occ=2.000000D+00  E=-8.525192D-01
              MO Center= -4.8D+00,  2.8D+00, -2.7D-01, r^2= 4.7D+00
   Bfn.  Coefficient  Atom+Function         Bfn.  Coefficient  Atom+Function  
  ----- ------------  ---------------      ----- ------------  ---------------
   299      0.264873  22 N  pz              313      0.223145  23 N  pz        
   285     -0.212434  21 C  pz              271      0.208235  20 N  pz        
   303      0.160936  22 N  pz              317      0.161385  23 N  pz        
   569      0.153923  57 H  s         
 
 Vector   78  Occ=2.000000D+00  E=-8.460683D-01
              MO Center= -1.7D-02, -3.6D+00,  2.6D-01, r^2= 6.9D+00
   Bfn.  Coefficient  Atom+Function         Bfn.  Coefficient  Atom+Function  
  ----- ------------  ---------------      ----- ------------  ---------------
   325      0.198842  24 N  px              423      0.162853  31 N  px        
   425      0.151180  31 N  pz        
 
 Vector   79  Occ=2.000000D+00  E=-8.301384D-01
              MO Center= -3.3D+00,  1.3D+00, -1.1D+00, r^2= 8.5D+00
   Bfn.  Coefficient  Atom+Function         Bfn.  Coefficient  Atom+Function  
  ----- ------------  ---------------      ----- ------------  ---------------
   269      0.221141  20 N  px              257      0.178729  19 C  pz        
   273      0.152382  20 N  px        
 
 Vector   80  Occ=2.000000D+00  E=-8.219152D-01
              MO Center= -1.9D-01,  3.0D+00,  2.7D-01, r^2= 1.1D+01
   Bfn.  Coefficient  Atom+Function         Bfn.  Coefficient  Atom+Function  
  ----- ------------  ---------------      ----- ------------  ---------------
   117      0.237010   9 N  pz              129      0.187951  10 C  px        
   144     -0.166859  11 C  py              121      0.165100   9 N  pz        
 
 Vector   81  Occ=2.000000D+00  E=-8.171288D-01
              MO Center= -5.1D+00,  2.4D+00,  4.6D-02, r^2= 3.8D+00
   Bfn.  Coefficient  Atom+Function         Bfn.  Coefficient  Atom+Function  
  ----- ------------  ---------------      ----- ------------  ---------------
   298      0.320987  22 N  py              302      0.240127  22 N  py        
   312      0.235292  23 N  py              567     -0.198561  56 H  s         
   571      0.163277  58 H  s               284     -0.156653  21 C  py        
   569      0.155629  57 H  s               299      0.150638  22 N  pz        
 
 Vector   82  Occ=2.000000D+00  E=-8.145669D-01
              MO Center=  2.4D+00, -4.3D+00,  9.2D-02, r^2= 1.6D+01
   Bfn.  Coefficient  Atom+Function         Bfn.  Coefficient  Atom+Function  
  ----- ------------  ---------------      ----- ------------  ---------------
   496      0.268875  36 C  s               492      0.188370  36 C  s         
   425     -0.168889  31 N  pz        
 
 Vector   83  Occ=2.000000D+00  E=-8.046826D-01
              MO Center= -3.4D-01,  5.1D-01,  4.2D-03, r^2= 2.3D+01
   Bfn.  Coefficient  Atom+Function         Bfn.  Coefficient  Atom+Function  
  ----- ------------  ---------------      ----- ------------  ---------------
   186      0.140598  14 C  py              200     -0.133130  15 C  py        
 
 Vector   84  Occ=2.000000D+00  E=-7.920521D-01
              MO Center=  2.0D+00,  4.6D+00, -1.9D-01, r^2= 1.6D+01
   Bfn.  Coefficient  Atom+Function         Bfn.  Coefficient  Atom+Function  
  ----- ------------  ---------------      ----- ------------  ---------------
    59      0.221873   5 C  px               73     -0.180250   6 C  px        
    87     -0.178949   7 O  px        
 
 Vector   85  Occ=2.000000D+00  E=-7.884880D-01
              MO Center= -2.9D+00,  2.2D+00, -1.1D+00, r^2= 1.3D+01
   Bfn.  Coefficient  Atom+Function         Bfn.  Coefficient  Atom+Function  
  ----- ------------  ---------------      ----- ------------  ---------------
   270      0.295139  20 N  py              274      0.242988  20 N  py        
   256     -0.173604  19 C  py        
 
 Vector   86  Occ=2.000000D+00  E=-7.770196D-01
              MO Center= -1.3D+00,  1.7D+00, -2.7D-01, r^2= 1.9D+01
   Bfn.  Coefficient  Atom+Function         Bfn.  Coefficient  Atom+Function  
  ----- ------------  ---------------      ----- ------------  ---------------
   185      0.151505  14 C  px        
 
 Vector   87  Occ=2.000000D+00  E=-7.741449D-01
              MO Center=  3.9D-01, -5.7D-01,  4.3D-01, r^2= 2.3D+01
   Bfn.  Coefficient  Atom+Function         Bfn.  Coefficient  Atom+Function  
  ----- ------------  ---------------      ----- ------------  ---------------
   341      0.143212  25 C  pz        
 
 Vector   88  Occ=2.000000D+00  E=-7.621557D-01
              MO Center= -1.0D-01,  2.1D+00,  3.2D-01, r^2= 1.8D+01
   Bfn.  Coefficient  Atom+Function         Bfn.  Coefficient  Atom+Function  
  ----- ------------  ---------------      ----- ------------  ---------------
     3      0.132761   1 N  px              160     -0.131266  12 O  s         
    61     -0.120290   5 C  pz        
 
 Vector   89  Occ=2.000000D+00  E=-7.496240D-01
              MO Center= -8.6D-01, -3.1D+00,  1.0D-01, r^2= 1.2D+01
   Bfn.  Coefficient  Atom+Function         Bfn.  Coefficient  Atom+Function  
  ----- ------------  ---------------      ----- ------------  ---------------
   395      0.198765  29 O  px              369      0.163396  27 O  pz        
 
 Vector   90  Occ=2.000000D+00  E=-7.427940D-01
              MO Center= -2.3D+00,  1.2D+00, -8.5D-01, r^2= 1.4D+01
   Bfn.  Coefficient  Atom+Function         Bfn.  Coefficient  Atom+Function  
  ----- ------------  ---------------      ----- ------------  ---------------
   257      0.177736  19 C  pz        
 
 Vector   91  Occ=2.000000D+00  E=-7.360256D-01
              MO Center=  8.6D-01,  2.3D+00,  6.9D-01, r^2= 2.9D+01
   Bfn.  Coefficient  Atom+Function         Bfn.  Coefficient  Atom+Function  
  ----- ------------  ---------------      ----- ------------  ---------------
    89      0.171987   7 O  pz        
 
 Vector   92  Occ=2.000000D+00  E=-7.322487D-01
              MO Center=  3.9D-01, -8.8D-01,  3.1D-01, r^2= 3.4D+01
   Bfn.  Coefficient  Atom+Function         Bfn.  Coefficient  Atom+Function  
  ----- ------------  ---------------      ----- ------------  ---------------
   395      0.172590  29 O  px        
 
 Vector   93  Occ=2.000000D+00  E=-7.250948D-01
              MO Center=  2.4D+00,  4.3D+00, -4.3D-01, r^2= 1.5D+01
   Bfn.  Coefficient  Atom+Function         Bfn.  Coefficient  Atom+Function  
  ----- ------------  ---------------      ----- ------------  ---------------
    87      0.165570   7 O  px               74     -0.163483   6 C  py        
     4      0.161972   1 N  py              104     -0.160859   8 O  s         
 
 Vector   94  Occ=2.000000D+00  E=-7.225500D-01
              MO Center=  1.1D-01,  4.6D-01,  4.3D-01, r^2= 2.3D+01
   Bfn.  Coefficient  Atom+Function         Bfn.  Coefficient  Atom+Function  
  ----- ------------  ---------------      ----- ------------  ---------------
    47      0.163222   4 O  pz        
 
 Vector   95  Occ=2.000000D+00  E=-7.147057D-01
              MO Center=  1.2D-01, -2.5D-01,  2.7D-01, r^2= 3.0D+01
   Bfn.  Coefficient  Atom+Function         Bfn.  Coefficient  Atom+Function  
  ----- ------------  ---------------      ----- ------------  ---------------
   397     -0.144936  29 O  pz              104      0.136138   8 O  s         
 
 Vector   96  Occ=2.000000D+00  E=-7.108302D-01
              MO Center=  2.8D+00,  1.9D+00, -4.0D-01, r^2= 3.4D+01
   Bfn.  Coefficient  Atom+Function         Bfn.  Coefficient  Atom+Function  
  ----- ------------  ---------------      ----- ------------  ---------------
   104     -0.188953   8 O  s               102      0.173411   8 O  py        
    89     -0.169387   7 O  pz               75     -0.156811   6 C  pz        
 
 Vector   97  Occ=2.000000D+00  E=-7.085325D-01
              MO Center=  7.3D-01, -2.4D+00, -6.1D-03, r^2= 2.9D+01
   Bfn.  Coefficient  Atom+Function         Bfn.  Coefficient  Atom+Function  
  ----- ------------  ---------------      ----- ------------  ---------------
   451      0.145930  33 C  px        
 
 Vector   98  Occ=2.000000D+00  E=-7.033711D-01
              MO Center= -4.9D-01,  2.5D+00, -4.9D-01, r^2= 1.6D+01
   Bfn.  Coefficient  Atom+Function         Bfn.  Coefficient  Atom+Function  
  ----- ------------  ---------------      ----- ------------  ---------------
     4      0.132720   1 N  py                5     -0.132704   1 N  pz        
   256      0.124779  19 C  py              533      0.121600  39 H  s         
 
 Vector   99  Occ=2.000000D+00  E=-7.015284D-01
              MO Center= -1.3D+00,  8.3D-01, -4.1D-03, r^2= 1.6D+01
   Bfn.  Coefficient  Atom+Function         Bfn.  Coefficient  Atom+Function  
  ----- ------------  ---------------      ----- ------------  ---------------
   229      0.170871  17 C  pz              187     -0.152665  14 C  pz        
 
 Vector  100  Occ=2.000000D+00  E=-7.000786D-01
              MO Center= -1.1D+00, -1.3D+00,  5.6D-02, r^2= 1.9D+01
   Bfn.  Coefficient  Atom+Function         Bfn.  Coefficient  Atom+Function  
  ----- ------------  ---------------      ----- ------------  ---------------
   241      0.155007  18 C  px        
 
 Vector  101  Occ=2.000000D+00  E=-6.931108D-01
              MO Center= -1.1D+00,  1.7D+00, -1.5D-01, r^2= 1.7D+01
   Bfn.  Coefficient  Atom+Function         Bfn.  Coefficient  Atom+Function  
  ----- ------------  ---------------      ----- ------------  ---------------
   143      0.155317  11 C  px              159      0.150630  12 O  pz        
 
 Vector  102  Occ=2.000000D+00  E=-6.843617D-01
              MO Center=  4.5D-01, -5.1D+00, -8.0D-01, r^2= 1.2D+01
   Bfn.  Coefficient  Atom+Function         Bfn.  Coefficient  Atom+Function  
  ----- ------------  ---------------      ----- ------------  ---------------
   467      0.323506  34 O  pz              453     -0.228524  33 C  pz        
   468     -0.188319  34 O  s               471      0.188128  34 O  pz        
   369      0.155533  27 O  pz        
 
 Vector  103  Occ=2.000000D+00  E=-6.795149D-01
              MO Center=  8.9D-01, -3.7D+00, -9.6D-02, r^2= 1.8D+01
   Bfn.  Coefficient  Atom+Function         Bfn.  Coefficient  Atom+Function  
  ----- ------------  ---------------      ----- ------------  ---------------
   369      0.213770  27 O  pz              424     -0.163068  31 N  py        
   353     -0.155306  26 C  px        
 
 Vector  104  Occ=2.000000D+00  E=-6.744157D-01
              MO Center= -8.1D-01, -1.8D+00, -1.3D-01, r^2= 1.8D+01
   Bfn.  Coefficient  Atom+Function         Bfn.  Coefficient  Atom+Function  
  ----- ------------  ---------------      ----- ------------  ---------------
   213      0.190806  16 O  px        
 
 Vector  105  Occ=2.000000D+00  E=-6.716737D-01
              MO Center= -2.7D-01,  9.5D-01,  1.2D-01, r^2= 1.7D+01
   Bfn.  Coefficient  Atom+Function         Bfn.  Coefficient  Atom+Function  
  ----- ------------  ---------------      ----- ------------  ---------------
   213      0.220825  16 O  px        
 
 Vector  106  Occ=2.000000D+00  E=-6.628119D-01
              MO Center=  2.3D+00,  4.3D+00,  2.7D-01, r^2= 1.4D+01
   Bfn.  Coefficient  Atom+Function         Bfn.  Coefficient  Atom+Function  
  ----- ------------  ---------------      ----- ------------  ---------------
    89      0.255213   7 O  pz               93      0.181272   7 O  pz        
    47     -0.179317   4 O  pz               61     -0.166266   5 C  pz        
 
 Vector  107  Occ=2.000000D+00  E=-6.577676D-01
              MO Center=  9.1D-01, -3.3D+00,  7.8D-02, r^2= 2.0D+01
   Bfn.  Coefficient  Atom+Function         Bfn.  Coefficient  Atom+Function  
  ----- ------------  ---------------      ----- ------------  ---------------
   340      0.135001  25 C  py              355     -0.135370  26 C  pz        
 
 Vector  108  Occ=2.000000D+00  E=-6.497292D-01
              MO Center=  8.8D-01, -3.4D+00, -1.1D-02, r^2= 2.3D+01
   Bfn.  Coefficient  Atom+Function         Bfn.  Coefficient  Atom+Function  
  ----- ------------  ---------------      ----- ------------  ---------------
   243      0.141082  18 C  pz              467      0.134249  34 O  pz        
   409     -0.129802  30 C  px        
 
 Vector  109  Occ=2.000000D+00  E=-6.491101D-01
              MO Center=  6.0D-01, -2.2D-01,  4.1D-02, r^2= 2.7D+01
   Bfn.  Coefficient  Atom+Function         Bfn.  Coefficient  Atom+Function  
  ----- ------------  ---------------      ----- ------------  ---------------
   327      0.145663  24 N  pz        
 
 Vector  110  Occ=2.000000D+00  E=-6.476768D-01
              MO Center=  1.4D+00,  2.8D+00,  4.2D-01, r^2= 2.0D+01
   Bfn.  Coefficient  Atom+Function         Bfn.  Coefficient  Atom+Function  
  ----- ------------  ---------------      ----- ------------  ---------------
    87      0.184490   7 O  px              131      0.158107  10 C  pz        
   117     -0.157080   9 N  pz        
 
 Vector  111  Occ=2.000000D+00  E=-6.412171D-01
              MO Center=  1.1D+00,  3.6D+00,  5.7D-01, r^2= 6.7D+00
   Bfn.  Coefficient  Atom+Function         Bfn.  Coefficient  Atom+Function  
  ----- ------------  ---------------      ----- ------------  ---------------
    33      0.285477   3 C  pz               46      0.277326   4 O  py        
   116      0.198305   9 N  py               50      0.179493   4 O  py        
 
 Vector  112  Occ=2.000000D+00  E=-6.364847D-01
              MO Center= -1.5D-01, -3.5D+00,  2.8D-02, r^2= 1.3D+01
   Bfn.  Coefficient  Atom+Function         Bfn.  Coefficient  Atom+Function  
  ----- ------------  ---------------      ----- ------------  ---------------
   367      0.159643  27 O  px        
 
 Vector  113  Occ=2.000000D+00  E=-6.309880D-01
              MO Center= -1.8D+00,  5.2D-01, -1.4D-01, r^2= 1.3D+01
   Bfn.  Coefficient  Atom+Function         Bfn.  Coefficient  Atom+Function  
  ----- ------------  ---------------      ----- ------------  ---------------
   227      0.183071  17 C  px              269      0.151762  20 N  px        
 
 Vector  114  Occ=2.000000D+00  E=-6.244950D-01
              MO Center= -1.4D+00, -5.6D-01, -4.9D-01, r^2= 1.3D+01
   Bfn.  Coefficient  Atom+Function         Bfn.  Coefficient  Atom+Function  
  ----- ------------  ---------------      ----- ------------  ---------------
   227      0.160250  17 C  px        
 
 Vector  115  Occ=2.000000D+00  E=-6.208108D-01
              MO Center=  1.4D+00,  3.3D+00, -6.7D-01, r^2= 1.8D+01
   Bfn.  Coefficient  Atom+Function         Bfn.  Coefficient  Atom+Function  
  ----- ------------  ---------------      ----- ------------  ---------------
   102      0.199065   8 O  py               60      0.168347   5 C  py        
     3      0.158498   1 N  px              228      0.157103  17 C  py        
   242     -0.151596  18 C  py        
 
 Vector  116  Occ=2.000000D+00  E=-6.182094D-01
              MO Center=  9.3D-01,  2.5D+00, -5.4D-01, r^2= 2.3D+01
   Bfn.  Coefficient  Atom+Function         Bfn.  Coefficient  Atom+Function  
  ----- ------------  ---------------      ----- ------------  ---------------
   102      0.186941   8 O  py              228     -0.171429  17 C  py        
    87     -0.162720   7 O  px              242      0.161500  18 C  py        
    61      0.155406   5 C  pz        
 
 Vector  117  Occ=2.000000D+00  E=-6.084137D-01
              MO Center= -1.9D+00, -2.5D+00,  2.3D+00, r^2= 7.7D+00
   Bfn.  Coefficient  Atom+Function         Bfn.  Coefficient  Atom+Function  
  ----- ------------  ---------------      ----- ------------  ---------------
   396      0.298252  29 O  py              410     -0.279238  30 C  py        
   400      0.222678  29 O  py              585     -0.185943  65 H  s         
   414     -0.171746  30 C  py              583      0.166909  64 H  s         
   586     -0.154670  65 H  s         
 
 Vector  118  Occ=2.000000D+00  E=-6.064641D-01
              MO Center= -1.8D-01,  2.0D+00,  6.1D-01, r^2= 1.7D+01
   Bfn.  Coefficient  Atom+Function         Bfn.  Coefficient  Atom+Function  
  ----- ------------  ---------------      ----- ------------  ---------------
   157      0.155077  12 O  px              158     -0.151295  12 O  py        
 
 Vector  119  Occ=2.000000D+00  E=-6.034839D-01
              MO Center= -6.0D-01, -1.2D+00, -8.9D-02, r^2= 3.3D+01
   Bfn.  Coefficient  Atom+Function         Bfn.  Coefficient  Atom+Function  
  ----- ------------  ---------------      ----- ------------  ---------------
   297      0.209758  22 N  px              311     -0.203710  23 N  px        
   301      0.181534  22 N  px              315     -0.181296  23 N  px        
 
 Vector  120  Occ=2.000000D+00  E=-6.015771D-01
              MO Center= -3.0D+00,  7.9D-01,  4.8D-02, r^2= 2.7D+01
   Bfn.  Coefficient  Atom+Function         Bfn.  Coefficient  Atom+Function  
  ----- ------------  ---------------      ----- ------------  ---------------
   297      0.326570  22 N  px              311     -0.304573  23 N  px        
   301      0.282494  22 N  px              315     -0.270907  23 N  px        
   299      0.172371  22 N  pz              313     -0.168167  23 N  pz        
 
 Vector  121  Occ=2.000000D+00  E=-5.981989D-01
              MO Center=  5.8D-01,  1.7D+00,  5.1D-01, r^2= 2.2D+01
   Bfn.  Coefficient  Atom+Function         Bfn.  Coefficient  Atom+Function  
  ----- ------------  ---------------      ----- ------------  ---------------
   157      0.136438  12 O  px              117      0.132614   9 N  pz        
    32      0.126667   3 C  py              131     -0.127139  10 C  pz        
 
 Vector  122  Occ=2.000000D+00  E=-5.885695D-01
              MO Center=  3.3D+00, -5.2D+00,  3.2D-01, r^2= 1.4D+01
   Bfn.  Coefficient  Atom+Function         Bfn.  Coefficient  Atom+Function  
  ----- ------------  ---------------      ----- ------------  ---------------
   509      0.228352  37 C  pz              508      0.199514  37 C  py        
   597     -0.182250  71 H  s         
 
 Vector  123  Occ=2.000000D+00  E=-5.853144D-01
              MO Center= -8.9D-02, -2.2D+00,  1.6D-01, r^2= 1.8D+01
   Bfn.  Coefficient  Atom+Function         Bfn.  Coefficient  Atom+Function  
  ----- ------------  ---------------      ----- ------------  ---------------
   187      0.159239  14 C  pz              229     -0.155027  17 C  pz        
   397     -0.151771  29 O  pz        
 
 Vector  124  Occ=2.000000D+00  E=-5.830783D-01
              MO Center=  4.2D-01, -4.5D+00, -4.3D-01, r^2= 1.3D+01
   Bfn.  Coefficient  Atom+Function         Bfn.  Coefficient  Atom+Function  
  ----- ------------  ---------------      ----- ------------  ---------------
   466      0.202064  34 O  py              465     -0.166004  34 O  px        
   368     -0.156449  27 O  py        
 
 Vector  125  Occ=2.000000D+00  E=-5.779840D-01
              MO Center=  2.3D+00, -4.7D+00, -3.6D-01, r^2= 1.3D+01
   Bfn.  Coefficient  Atom+Function         Bfn.  Coefficient  Atom+Function  
  ----- ------------  ---------------      ----- ------------  ---------------
   480      0.188156  35 C  py              522     -0.188597  38 C  py        
   593     -0.170678  69 H  s               481      0.157915  35 C  pz        
 
 Vector  126  Occ=2.000000D+00  E=-5.724841D-01
              MO Center=  3.1D+00,  4.9D+00, -2.1D-01, r^2= 5.1D+00
   Bfn.  Coefficient  Atom+Function         Bfn.  Coefficient  Atom+Function  
  ----- ------------  ---------------      ----- ------------  ---------------
    17      0.276966   2 C  px               87     -0.204519   7 O  px        
    59     -0.196077   5 C  px                5     -0.181934   1 N  pz        
    73      0.182514   6 C  px               91     -0.160397   7 O  px        
[...]
  53    beta      a     14 doubles     760      21
  54    beta      a     15 doubles     774      22
  55    beta      a     14 doubles     789      23
  56    beta      a     15 doubles     803      24
  57    beta      a     15 doubles     818      25
  58    beta      a     14 doubles     833      26
  59    beta      a     15 doubles     847      27
  60    beta      a     15 doubles     862      28
  61    beta      a     14 doubles     877      29
  62    beta      a     15 doubles     891      30
  63    beta      a     14 doubles     906      31
  64    beta      a     15 doubles     920      32
  65    beta      a     15 doubles     935      33
  66    beta      a     14 doubles     950      34
  67    beta      a     15 doubles     964      35
  68    beta      a     15 doubles     979      36
  69    beta      a     14 doubles     994      37
  70    beta      a     15 doubles    1008      38
  71    beta      a     14 doubles    1023      39
  72    beta      a     15 doubles    1037      40
  73    beta      a     15 doubles    1052      41
  74    beta      a     14 doubles    1067      42
  75    beta      a     15 doubles    1081      43
  76    beta      a     15 doubles    1096      44
  77    beta      a     14 doubles    1111      45
  78    beta      a     15 doubles    1125      46
  79    beta      a     14 doubles    1140      47
  80    beta      a     15 doubles    1154      48
  81    beta      a     15 doubles    1169      49
  82    beta      a     14 doubles    1184      50
  83    beta      a     15 doubles    1198      51
  84    beta      a     15 doubles    1213      52

 Global array virtual files algorithm will be used

 Parallel file system coherency ......... OK
 size_1e                   376996
  0 ga offset                   0 size_xx_perproc               23562
 READ TENSOR
  1 ga offset               23562 size_xx_perproc               23562
  total size:            376996
  9 ga offset              212058 size_xx_perproc               23562
  8 ga offset              188496 size_xx_perproc               23562
 14 ga offset              329868 size_xx_perproc               23562
 15 ga offset              353430 size_xx_perproc               23566
  7 ga offset              164934 size_xx_perproc               23562
 11 ga offset              259182 size_xx_perproc               23562
 10 ga offset              235620 size_xx_perproc               23562
  6 ga offset              141372 size_xx_perproc               23562
  4 ga offset               94248 size_xx_perproc               23562
  2 ga offset               47124 size_xx_perproc               23562
 13 ga offset              306306 size_xx_perproc               23562
 12 ga offset              282744 size_xx_perproc               23562
  filename: /lustre/atlas/scratch/hjjvd/chm136/dgrtl.gto_631gp.74752/nwc_gbe_dat.f1int.00000
  5 ga offset              117810 size_xx_perproc               23562
  unit nr:       77
  file size:          23562
  rec_mem (KB):     2048
  rec_size:         262144
  number of tasks:            1
  3 ga offset               70686 size_xx_perproc               23562
 
 Fock matrix recomputed
 1-e file size   =           376996
 1-e file name   = /lustre/atlas/scratch/hjjvd/chm136/dgrtl.gto_631gp.74752/nwc_gbe_dat.f1int.000000
 Cpu & wall time / sec           27.0           27.4
 4-electron integrals stored in orbital form
 
 v2    file size   =      18643432816
 14 ga offset         16313003714 size_xx_perproc          1165214551
 4-index algorithm nr.  15 is used
 10 ga offset         11652145510 size_xx_perproc          1165214551
 11 ga offset         12817360061 size_xx_perproc          1165214551
 15 ga offset         17478218265 size_xx_perproc          1165214551
  4 ga offset          4660858204 size_xx_perproc          1165214551
 13 ga offset         15147789163 size_xx_perproc          1165214551
 12 ga offset         13982574612 size_xx_perproc          1165214551
  9 ga offset         10486930959 size_xx_perproc          1165214551
  8 ga offset          9321716408 size_xx_perproc          1165214551
 imaxsize =       45
  1 ga offset          1165214551 size_xx_perproc          1165214551
 imaxsize ichop =        0
  2 ga offset          2330429102 size_xx_perproc          1165214551
  6 ga offset          6991287306 size_xx_perproc          1165214551
  7 ga offset          8156501857 size_xx_perproc          1165214551
  0 ga offset                   0 size_xx_perproc          1165214551
 READ TENSOR
  total size:       18643432816
  filename: /lustre/atlas/scratch/hjjvd/chm136/dgrtl.gto_631gp.74752/nwc_gbe_dat.v2int.00000
  unit nr:      178
  file size:     1165214551
  rec_mem (KB):     2048
  rec_size:         262144
  number of tasks:         4445
  3 ga offset          3495643653 size_xx_perproc          1165214551
  5 ga offset          5826072755 size_xx_perproc          1165214551
 Cpu & wall time / sec           14.6          103.5
 T1-number-of-tasks                      320
 
 t1 file size   =            68328
 t1 file name   = /lustre/atlas/scratch/hjjvd/chm136/dgrtl.gto_631gp.74752/nwc_gbe_dat.t1
 t1 file handle =       -995
 T2-number-of-boxes                   131440
 
 t2 file size   =       5992913634
 t2 file name   = /lustre/atlas/scratch/hjjvd/chm136/dgrtl.gto_631gp.74752/nwc_gbe_dat.t2
 t2 file handle =       -994
  0 ga offset                   0 size_xx_perproc                4270
  1 ga offset                4270 size_xx_perproc                4270
 11 ga offset               46970 size_xx_perproc                4270
 14 ga offset               59780 size_xx_perproc                4270
  6 ga offset               25620 size_xx_perproc                4270
 12 ga offset               51240 size_xx_perproc                4270
 13 ga offset               55510 size_xx_perproc                4270
  7 ga offset               29890 size_xx_perproc                4270
 10 ga offset               42700 size_xx_perproc                4270
  2 ga offset                8540 size_xx_perproc                4270
  9 ga offset               38430 size_xx_perproc                4270
  3 ga offset               12810 size_xx_perproc                4270
 15 ga offset               64050 size_xx_perproc                4278
  8 ga offset               34160 size_xx_perproc                4270
 READ TENSOR
  5 ga offset               21350 size_xx_perproc                4270
  4 ga offset               17080 size_xx_perproc                4270
  total size:             68328
  filename: /lustre/atlas/scratch/hjjvd/chm136/dgrtl.gto_631gp.74752/nwc_gbe_dat.t1amp.00000
  unit nr:       79
  file size:           4270
  rec_mem (KB):     2048
  rec_size:         262144
  number of tasks:            1
 14 ga offset          5243799428 size_xx_perproc           374557102
  1 ga offset           374557102 size_xx_perproc           374557102
  9 ga offset          3371013918 size_xx_perproc           374557102
  2 ga offset           749114204 size_xx_perproc           374557102
  6 ga offset          2247342612 size_xx_perproc           374557102
  5 ga offset          1872785510 size_xx_perproc           374557102
  3 ga offset          1123671306 size_xx_perproc           374557102
  7 ga offset          2621899714 size_xx_perproc           374557102
 12 ga offset          4494685224 size_xx_perproc           374557102
 13 ga offset          4869242326 size_xx_perproc           374557102
 10 ga offset          3745571020 size_xx_perproc           374557102
 11 ga offset          4120128122 size_xx_perproc           374557102
 15 ga offset          5618356530 size_xx_perproc           374557104
  0 ga offset                   0 size_xx_perproc           374557102
  4 ga offset          1498228408 size_xx_perproc           374557102
 READ TENSOR
  total size:        5992913634
  filename: /lustre/atlas/scratch/hjjvd/chm136/dgrtl.gto_631gp.74752/nwc_gbe_dat.t2amp.00000
  unit nr:       80
  file size:      374557102
  rec_mem (KB):     2048
  rec_size:         262144
  number of tasks:         1429
  8 ga offset          2996456816 size_xx_perproc           374557102
CCSD iterations
 ---------------------------------------------------------
 Iter          Residuum       Correlation     Cpu    Wall 
 ---------------------------------------------------------
NEW TASK SCHEDULING
CCSD_T1_NTS --- OK
CCSD_T2_NTS --- OK
    1   0.0007797917086  -5.8753121746554  2089.1  2099.6
 -----------------------------------------------------------------
 Iterations converged
 CCSD correlation energy / hartree =        -5.875312174655412
 CCSD total energy / hartree       =     -1896.935183409593719

 Singles contributions

 Doubles contributions
 CCSD(T)
 Using plain CCSD(T) code
 Total number of tasks:                  10609280                 74264960
 Memory available     :                 157547556
             total no. of tasks     10609280
 total no. of tasks / no. procs          151
                         wl_min      7529536          14.0
                         wl_max     11390625          15.0
        thresh for no. of tasks     10609280
0task *****  done    5%  at          962.1 sec, (size)^1/6=      15.0
0task *****  done   10%  at         1818.4 sec, (size)^1/6=      14.8
0task *****  done   15%  at         2696.9 sec, (size)^1/6=      14.8
0task *****  done   20%  at         3449.2 sec, (size)^1/6=      14.8
0task *****  done   25%  at         4281.1 sec, (size)^1/6=      14.8
0task *****  done   30%  at         5133.4 sec, (size)^1/6=      14.7
0task *****  done   35%  at         5862.7 sec, (size)^1/6=      14.7
0task *****  done   40%  at         6710.7 sec, (size)^1/6=      14.7
0task *****  done   45%  at         7408.9 sec, (size)^1/6=      14.7
0task *****  done   50%  at         8216.7 sec, (size)^1/6=      14.7
0task *****  done   55%  at         9017.7 sec, (size)^1/6=      14.7
0task *****  done   60%  at         9705.8 sec, (size)^1/6=      14.5
0task *****  done   65%  at        10512.4 sec, (size)^1/6=      14.5
0task *****  done   70%  at        11283.7 sec, (size)^1/6=      14.5
0task *****  done   75%  at        12061.6 sec, (size)^1/6=      14.5
0task *****  done   80%  at        12711.9 sec, (size)^1/6=      14.5
0task *****  done   85%  at        13430.4 sec, (size)^1/6=      14.3
0task *****  done   90%  at        14164.0 sec, (size)^1/6=      14.3
0task *****  done   95%  at        14867.6 sec, (size)^1/6=      14.3
 
 CCSD[T]  correction energy / hartree =        -0.212043964732291
 CCSD[T] correlation energy / hartree =        -6.087356139387703
 CCSD[T] total energy / hartree       =     -1897.147227374326121
 CCSD(T)  correction energy / hartree =        -0.196937509376143
 CCSD(T) correlation energy / hartree =        -6.072249684031554
 CCSD(T) total energy / hartree       =     -1897.132120918969804
 Cpu & wall time / sec        15504.3        15521.4

 Task  times  cpu:    19994.4s     wall:    20212.9s
 
 
                                NWChem Input Module
                                -------------------
 
 
 Summary of allocated global arrays
-----------------------------------
  array 0 => double precision alpha AO Fock(614,614),  handle: -999 
  array 1 => double precision beta AO Fock(614,614),  handle: -998 



                         GA Statistics for process    0
                         ------------------------------

       create   destroy   get      put      acc     scatter   gather  read&inc
calls:  102      100     3.22e+05 7352      116        0        0      450     
number of processes/call 2.91e+00 1.88e+01 1.36e+02 0.00e+00 0.00e+00
bytes total:             1.16e+11 1.24e+10 3.94e+07 0.00e+00 0.00e+00 3.60e+03
bytes remote:            1.16e+11 1.24e+10 3.93e+07 0.00e+00 0.00e+00 1.10e+03
Max memory consumed for GA by this process: 9102416 bytes
 
MA_summarize_allocated_blocks: starting scan ...
MA_summarize_allocated_blocks: scan completed: 0 heap blocks, 0 stack blocks
MA usage statistics:

	allocation statistics:
					      heap	     stack
					      ----	     -----
	current number of blocks	         0	         0
	maximum number of blocks	        16	        42
	current total bytes		         0	         0
	maximum total bytes		    519072	1379267528
	maximum total K-bytes		       520	   1379268
	maximum total M-bytes		         1	      1380
 
 
                                     CITATION
                                     --------
                Please cite the following reference when publishing
                           results obtained with NWChem:
 
                 M. Valiev, E.J. Bylaska, N. Govind, K. Kowalski,
              T.P. Straatsma, H.J.J. van Dam, D. Wang, J. Nieplocha,
                        E. Apra, T.L. Windus, W.A. de Jong
                 "NWChem: a comprehensive and scalable open-source
                  solution for large scale molecular simulations"
                      Comput. Phys. Commun. 181, 1477 (2010)
                           doi:10.1016/j.cpc.2010.04.018
 
                                      AUTHORS
                                      -------
          E. Apra, E. J. Bylaska, W. A. de Jong, N. Govind, K. Kowalski,
       T. P. Straatsma, M. Valiev, H. J. J. van Dam, D. Wang, T. L. Windus,
        J. Hammond, J. Autschbach, K. Bhaskaran-Nair, J. Brabec, K. Lopata,
    S. A. Fischer, S. Krishnamoorthy, M. Jacquelin, W. Ma, M. Klemm, O. Villa,
      Y. Chen, V. Anisimov, F. Aquino, S. Hirata, M. T. Hackler, V. Konjkov,
            D. Mejia-Rodriguez, T. Risthaus, M. Malagoli, A. Marenich,
   A. Otero-de-la-Roza, J. Mullin, P. Nichols, R. Peverati, J. Pittner, Y. Zhao,
        P.-D. Fan, A. Fonari, M. J. Williamson, R. J. Harrison, J. R. Rehr,
      M. Dupuis, D. Silverstein, D. M. A. Smith, J. Nieplocha, V. Tipparaju,
    M. Krishnan, B. E. Van Kuiken, A. Vazquez-Mayagoitia, L. Jensen, M. Swart,
      Q. Wu, T. Van Voorhis, A. A. Auer, M. Nooijen, L. D. Crosby, E. Brown,
      G. Cisneros, G. I. Fann, H. Fruchtl, J. Garza, K. Hirao, R. A. Kendall,
      J. A. Nichols, K. Tsemekhman, K. Wolinski, J. Anchell, D. E. Bernholdt,
      P. Borowski, T. Clark, D. Clerc, H. Dachsel, M. J. O. Deegan, K. Dyall,
    D. Elwood, E. Glendening, M. Gutowski, A. C. Hess, J. Jaffe, B. G. Johnson,
     J. Ju, R. Kobayashi, R. Kutteh, Z. Lin, R. Littlefield, X. Long, B. Meng,
      T. Nakajima, S. Niu, L. Pollack, M. Rosing, K. Glaesemann, G. Sandrone,
      M. Stave, H. Taylor, G. Thomas, J. H. van Lenthe, A. T. Wong, Z. Zhang.

 Total times  cpu:    19996.9s     wall:    20215.8s
Application 19501932 resources: utime ~1508294803s, stime ~2827909s, Rss ~1551780, inblocks ~727678521, outblocks ~1089520207
total 192598884
-rw------- 1 hjjvd hjjvd 9321716424 Jan  2 10:35 nwc_gbe_dat.v2int.000012
-rw------- 1 hjjvd hjjvd 9321716424 Jan  2 10:35 nwc_gbe_dat.v2int.000011
-rw------- 1 hjjvd hjjvd 9321716424 Jan  2 10:35 nwc_gbe_dat.v2int.000010
-rw------- 1 hjjvd hjjvd 9321716424 Jan  2 10:35 nwc_gbe_dat.v2int.000009
-rw------- 1 hjjvd hjjvd 9321716424 Jan  2 10:35 nwc_gbe_dat.v2int.000008
-rw------- 1 hjjvd hjjvd 9321716424 Jan  2 10:35 nwc_gbe_dat.v2int.000007
-rw------- 1 hjjvd hjjvd 9321716424 Jan  2 10:35 nwc_gbe_dat.v2int.000006
-rw------- 1 hjjvd hjjvd 9321716424 Jan  2 10:35 nwc_gbe_dat.v2int.000005
-rw------- 1 hjjvd hjjvd 9321716424 Jan  2 10:35 nwc_gbe_dat.v2int.000004
-rw------- 1 hjjvd hjjvd 9321716424 Jan  2 10:35 nwc_gbe_dat.v2int.000003
-rw------- 1 hjjvd hjjvd 9321716424 Jan  2 10:35 nwc_gbe_dat.v2int.000002
-rw------- 1 hjjvd hjjvd 9321716424 Jan  2 10:35 nwc_gbe_dat.v2int.000001
-rw------- 1 hjjvd hjjvd 9321716424 Jan  2 10:35 nwc_gbe_dat.v2int.000000
-rw------- 1 hjjvd hjjvd 2996456848 Jan  2 10:35 nwc_gbe_dat.t2amp.000015
-rw------- 1 hjjvd hjjvd 2996456832 Jan  2 10:35 nwc_gbe_dat.t2amp.000014
-rw------- 1 hjjvd hjjvd 2996456832 Jan  2 10:35 nwc_gbe_dat.t2amp.000013
-rw------- 1 hjjvd hjjvd 2996456832 Jan  2 10:35 nwc_gbe_dat.t2amp.000012
-rw------- 1 hjjvd hjjvd 2996456832 Jan  2 10:35 nwc_gbe_dat.t2amp.000011
-rw------- 1 hjjvd hjjvd 2996456832 Jan  2 10:35 nwc_gbe_dat.t2amp.000010
-rw------- 1 hjjvd hjjvd 2996456832 Jan  2 10:35 nwc_gbe_dat.t2amp.000009
-rw------- 1 hjjvd hjjvd 2996456832 Jan  2 10:35 nwc_gbe_dat.t2amp.000008
-rw------- 1 hjjvd hjjvd 2996456832 Jan  2 10:35 nwc_gbe_dat.t2amp.000007
-rw------- 1 hjjvd hjjvd 2996456832 Jan  2 10:35 nwc_gbe_dat.t2amp.000006
-rw------- 1 hjjvd hjjvd 2996456832 Jan  2 10:35 nwc_gbe_dat.t2amp.000005
-rw------- 1 hjjvd hjjvd 2996456832 Jan  2 10:35 nwc_gbe_dat.t2amp.000004
-rw------- 1 hjjvd hjjvd 2996456832 Jan  2 10:35 nwc_gbe_dat.t2amp.000003
-rw------- 1 hjjvd hjjvd 2996456832 Jan  2 10:35 nwc_gbe_dat.t2amp.000002
-rw------- 1 hjjvd hjjvd 2996456832 Jan  2 10:35 nwc_gbe_dat.t2amp.000001
-rw------- 1 hjjvd hjjvd 2996456832 Jan  2 10:35 nwc_gbe_dat.t2amp.000000
-rw------- 1 hjjvd hjjvd      34240 Jan  2 10:35 nwc_gbe_dat.t1amp.000015
-rw------- 1 hjjvd hjjvd      34176 Jan  2 10:35 nwc_gbe_dat.t1amp.000014
-rw------- 1 hjjvd hjjvd      34176 Jan  2 10:35 nwc_gbe_dat.t1amp.000013
-rw------- 1 hjjvd hjjvd      34176 Jan  2 10:35 nwc_gbe_dat.t1amp.000012
-rw------- 1 hjjvd hjjvd      34176 Jan  2 10:35 nwc_gbe_dat.t1amp.000011
-rw------- 1 hjjvd hjjvd      34176 Jan  2 10:35 nwc_gbe_dat.t1amp.000010
-rw------- 1 hjjvd hjjvd      34176 Jan  2 10:35 nwc_gbe_dat.t1amp.000009
-rw------- 1 hjjvd hjjvd      34176 Jan  2 10:35 nwc_gbe_dat.t1amp.000008
-rw------- 1 hjjvd hjjvd      34176 Jan  2 10:35 nwc_gbe_dat.t1amp.000007
-rw------- 1 hjjvd hjjvd      34176 Jan  2 10:35 nwc_gbe_dat.t1amp.000006
-rw------- 1 hjjvd hjjvd      34176 Jan  2 10:35 nwc_gbe_dat.t1amp.000005
-rw------- 1 hjjvd hjjvd      34176 Jan  2 10:35 nwc_gbe_dat.t1amp.000004
-rw------- 1 hjjvd hjjvd      34176 Jan  2 10:35 nwc_gbe_dat.t1amp.000003
-rw------- 1 hjjvd hjjvd      34176 Jan  2 10:35 nwc_gbe_dat.t1amp.000002
-rw------- 1 hjjvd hjjvd      34176 Jan  2 10:35 nwc_gbe_dat.t1amp.000001
-rw------- 1 hjjvd hjjvd      34176 Jan  2 10:35 nwc_gbe_dat.t1amp.000000
-rw------- 1 hjjvd hjjvd     188544 Jan  2 10:35 nwc_gbe_dat.f1int.000015
-rw------- 1 hjjvd hjjvd     188512 Jan  2 10:35 nwc_gbe_dat.f1int.000014
-rw------- 1 hjjvd hjjvd     188512 Jan  2 10:35 nwc_gbe_dat.f1int.000013
-rw------- 1 hjjvd hjjvd     188512 Jan  2 10:35 nwc_gbe_dat.f1int.000012
-rw------- 1 hjjvd hjjvd     188512 Jan  2 10:35 nwc_gbe_dat.f1int.000011
-rw------- 1 hjjvd hjjvd     188512 Jan  2 10:35 nwc_gbe_dat.f1int.000010
-rw------- 1 hjjvd hjjvd     188512 Jan  2 10:35 nwc_gbe_dat.f1int.000009
-rw------- 1 hjjvd hjjvd     188512 Jan  2 10:35 nwc_gbe_dat.f1int.000008
-rw------- 1 hjjvd hjjvd     188512 Jan  2 10:35 nwc_gbe_dat.f1int.000007
-rw------- 1 hjjvd hjjvd     188512 Jan  2 10:35 nwc_gbe_dat.f1int.000006
-rw------- 1 hjjvd hjjvd     188512 Jan  2 10:35 nwc_gbe_dat.f1int.000005
-rw------- 1 hjjvd hjjvd     188512 Jan  2 10:35 nwc_gbe_dat.f1int.000004
-rw------- 1 hjjvd hjjvd     188512 Jan  2 10:35 nwc_gbe_dat.f1int.000003
-rw------- 1 hjjvd hjjvd     188512 Jan  2 10:35 nwc_gbe_dat.f1int.000002
-rw------- 1 hjjvd hjjvd     188512 Jan  2 10:35 nwc_gbe_dat.f1int.000001
-rw------- 1 hjjvd hjjvd     188512 Jan  2 10:35 nwc_gbe_dat.f1int.000000
-rw------- 1 hjjvd hjjvd        404 Jan  2 10:35 nwc_gbe_631gp_rhf.nw
-rw------- 1 hjjvd hjjvd        977 Jan  2 10:35 nwc_gbe_631gp_ccsd_t.nw
-rw------- 1 hjjvd hjjvd        924 Jan  2 10:35 nwc_gbe_631gp_ccsd.nw
-rw------- 1 hjjvd hjjvd      12141 Jan  2 10:35 dgrtl.pdb
-rwx------ 1 hjjvd hjjvd  119396278 Jan  2 10:36 nwchem
-rw------- 1 hjjvd hjjvd 9321716424 Jan  2 10:36 nwc_gbe_dat.v2int.000015
-rw------- 1 hjjvd hjjvd 9321716424 Jan  2 10:36 nwc_gbe_dat.v2int.000014
-rw------- 1 hjjvd hjjvd 9321716424 Jan  2 10:36 nwc_gbe_dat.v2int.000013
-rw------- 1 hjjvd hjjvd    3016003 Jan  2 10:38 nwc_gbe_dat.cfock
-rw------- 1 hjjvd hjjvd    3031041 Jan  2 10:39 nwc_gbe_dat.movecs
-rw------- 1 hjjvd hjjvd     771129 Jan  2 16:14 nwc_gbe_dat.db
